<?xml version="1.0"?>
<VTKFile type="UnstructuredGrid" version="0.1" byte_order="LittleEndian">
<UnstructuredGrid>
<Piece NumberOfPoints="1029" NumberOfCells="720">
<Points>
<DataArray type="Float32" NumberOfComponents="3" format="ascii">
0 0 0
0.005 0 0
0.01 0 0
0.015 0 0
0.02 0 0
0.025 0 0
0.03 0 0
0.035 0 0
0.04 0 0
0.045 0 0
0.05 0 0
0.055 0 0
0.06 0 0
0.065 0 0
0.07 0 0
0.075 0 0
0.08 0 0
0.085 0 0
0.09 0 0
0.095 0 0
0.1 0 0
0 0.005 0
0.005 0.005 0
0.01 0.005 0
0.015 0.005 0
0.02 0.005 0
0.025 0.005 0
0.03 0.005 0
0.035 0.005 0
0.04 0.005 0
0.045 0.005 0
0.05 0.005 0
0.055 0.005 0
0.06 0.005 0
0.065 0.005 0
0.07 0.005 0
0.075 0.005 0
0.08 0.005 0
0.085 0.005 0
0.09 0.005 0
0.095 0.005 0
0.1 0.005 0
0 0.01 0
0.005 0.01 0
0.01 0.01 0
0.015 0.01 0
0.02 0.01 0
0.025 0.01 0
0.03 0.01 0
0.035 0.01 0
0.04 0.01 0
0.045 0.01 0
0.05 0.01 0
0.055 0.01 0
0.06 0.01 0
0.065 0.01 0
0.07 0.01 0
0.075 0.01 0
0.08 0.01 0
0.085 0.01 0
0.09 0.01 0
0.095 0.01 0
0.1 0.01 0
0 0.015 0
0.005 0.015 0
0.01 0.015 0
0.015 0.015 0
0.02 0.015 0
0.025 0.015 0
0.03 0.015 0
0.035 0.015 0
0.04 0.015 0
0.045 0.015 0
0.05 0.015 0
0.055 0.015 0
0.06 0.015 0
0.065 0.015 0
0.07 0.015 0
0.075 0.015 0
0.08 0.015 0
0.085 0.015 0
0.09 0.015 0
0.095 0.015 0
0.1 0.015 0
0 0.02 0
0.005 0.02 0
0.01 0.02 0
0.015 0.02 0
0.02 0.02 0
0.025 0.02 0
0.03 0.02 0
0.035 0.02 0
0.04 0.02 0
0.045 0.02 0
0.05 0.02 0
0.055 0.02 0
0.06 0.02 0
0.065 0.02 0
0.07 0.02 0
0.075 0.02 0
0.08 0.02 0
0.085 0.02 0
0.09 0.02 0
0.095 0.02 0
0.1 0.02 0
0 0.025 0
0.005 0.025 0
0.01 0.025 0
0.015 0.025 0
0.02 0.025 0
0.025 0.025 0
0.03 0.025 0
0.035 0.025 0
0.04 0.025 0
0.045 0.025 0
0.05 0.025 0
0.055 0.025 0
0.06 0.025 0
0.065 0.025 0
0.07 0.025 0
0.075 0.025 0
0.08 0.025 0
0.085 0.025 0
0.09 0.025 0
0.095 0.025 0
0.1 0.025 0
0 0.03 0
0.005 0.03 0
0.01 0.03 0
0.015 0.03 0
0.02 0.03 0
0.025 0.03 0
0.03 0.03 0
0.035 0.03 0
0.04 0.03 0
0.045 0.03 0
0.05 0.03 0
0.055 0.03 0
0.06 0.03 0
0.065 0.03 0
0.07 0.03 0
0.075 0.03 0
0.08 0.03 0
0.085 0.03 0
0.09 0.03 0
0.095 0.03 0
0.1 0.03 0
0 0 0.005
0.005 0 0.005
0.01 0 0.005
0.015 0 0.005
0.02 0 0.005
0.025 0 0.005
0.03 0 0.005
0.035 0 0.005
0.04 0 0.005
0.045 0 0.005
0.05 0 0.005
0.055 0 0.005
0.06 0 0.005
0.065 0 0.005
0.07 0 0.005
0.075 0 0.005
0.08 0 0.005
0.085 0 0.005
0.09 0 0.005
0.095 0 0.005
0.1 0 0.005
0 0.005 0.005
0.005 0.005 0.005
0.01 0.005 0.005
0.015 0.005 0.005
0.02 0.005 0.005
0.025 0.005 0.005
0.03 0.005 0.005
0.035 0.005 0.005
0.04 0.005 0.005
0.045 0.005 0.005
0.05 0.005 0.005
0.055 0.005 0.005
0.06 0.005 0.005
0.065 0.005 0.005
0.07 0.005 0.005
0.075 0.005 0.005
0.08 0.005 0.005
0.085 0.005 0.005
0.09 0.005 0.005
0.095 0.005 0.005
0.1 0.005 0.005
0 0.01 0.005
0.005 0.01 0.005
0.01 0.01 0.005
0.015 0.01 0.005
0.02 0.01 0.005
0.025 0.01 0.005
0.03 0.01 0.005
0.035 0.01 0.005
0.04 0.01 0.005
0.045 0.01 0.005
0.05 0.01 0.005
0.055 0.01 0.005
0.06 0.01 0.005
0.065 0.01 0.005
0.07 0.01 0.005
0.075 0.01 0.005
0.08 0.01 0.005
0.085 0.01 0.005
0.09 0.01 0.005
0.095 0.01 0.005
0.1 0.01 0.005
0 0.015 0.005
0.005 0.015 0.005
0.01 0.015 0.005
0.015 0.015 0.005
0.02 0.015 0.005
0.025 0.015 0.005
0.03 0.015 0.005
0.035 0.015 0.005
0.04 0.015 0.005
0.045 0.015 0.005
0.05 0.015 0.005
0.055 0.015 0.005
0.06 0.015 0.005
0.065 0.015 0.005
0.07 0.015 0.005
0.075 0.015 0.005
0.08 0.015 0.005
0.085 0.015 0.005
0.09 0.015 0.005
0.095 0.015 0.005
0.1 0.015 0.005
0 0.02 0.005
0.005 0.02 0.005
0.01 0.02 0.005
0.015 0.02 0.005
0.02 0.02 0.005
0.025 0.02 0.005
0.03 0.02 0.005
0.035 0.02 0.005
0.04 0.02 0.005
0.045 0.02 0.005
0.05 0.02 0.005
0.055 0.02 0.005
0.06 0.02 0.005
0.065 0.02 0.005
0.07 0.02 0.005
0.075 0.02 0.005
0.08 0.02 0.005
0.085 0.02 0.005
0.09 0.02 0.005
0.095 0.02 0.005
0.1 0.02 0.005
0 0.025 0.005
0.005 0.025 0.005
0.01 0.025 0.005
0.015 0.025 0.005
0.02 0.025 0.005
0.025 0.025 0.005
0.03 0.025 0.005
0.035 0.025 0.005
0.04 0.025 0.005
0.045 0.025 0.005
0.05 0.025 0.005
0.055 0.025 0.005
0.06 0.025 0.005
0.065 0.025 0.005
0.07 0.025 0.005
0.075 0.025 0.005
0.08 0.025 0.005
0.085 0.025 0.005
0.09 0.025 0.005
0.095 0.025 0.005
0.1 0.025 0.005
0 0.03 0.005
0.005 0.03 0.005
0.01 0.03 0.005
0.015 0.03 0.005
0.02 0.03 0.005
0.025 0.03 0.005
0.03 0.03 0.005
0.035 0.03 0.005
0.04 0.03 0.005
0.045 0.03 0.005
0.05 0.03 0.005
0.055 0.03 0.005
0.06 0.03 0.005
0.065 0.03 0.005
0.07 0.03 0.005
0.075 0.03 0.005
0.08 0.03 0.005
0.085 0.03 0.005
0.09 0.03 0.005
0.095 0.03 0.005
0.1 0.03 0.005
0 0 0.01
0.005 0 0.01
0.01 0 0.01
0.015 0 0.01
0.02 0 0.01
0.025 0 0.01
0.03 0 0.01
0.035 0 0.01
0.04 0 0.01
0.045 0 0.01
0.05 0 0.01
0.055 0 0.01
0.06 0 0.01
0.065 0 0.01
0.07 0 0.01
0.075 0 0.01
0.08 0 0.01
0.085 0 0.01
0.09 0 0.01
0.095 0 0.01
0.1 0 0.01
0 0.005 0.01
0.005 0.005 0.01
0.01 0.005 0.01
0.015 0.005 0.01
0.02 0.005 0.01
0.025 0.005 0.01
0.03 0.005 0.01
0.035 0.005 0.01
0.04 0.005 0.01
0.045 0.005 0.01
0.05 0.005 0.01
0.055 0.005 0.01
0.06 0.005 0.01
0.065 0.005 0.01
0.07 0.005 0.01
0.075 0.005 0.01
0.08 0.005 0.01
0.085 0.005 0.01
0.09 0.005 0.01
0.095 0.005 0.01
0.1 0.005 0.01
0 0.01 0.01
0.005 0.01 0.01
0.01 0.01 0.01
0.015 0.01 0.01
0.02 0.01 0.01
0.025 0.01 0.01
0.03 0.01 0.01
0.035 0.01 0.01
0.04 0.01 0.01
0.045 0.01 0.01
0.05 0.01 0.01
0.055 0.01 0.01
0.06 0.01 0.01
0.065 0.01 0.01
0.07 0.01 0.01
0.075 0.01 0.01
0.08 0.01 0.01
0.085 0.01 0.01
0.09 0.01 0.01
0.095 0.01 0.01
0.1 0.01 0.01
0 0.015 0.01
0.005 0.015 0.01
0.01 0.015 0.01
0.015 0.015 0.01
0.02 0.015 0.01
0.025 0.015 0.01
0.03 0.015 0.01
0.035 0.015 0.01
0.04 0.015 0.01
0.045 0.015 0.01
0.05 0.015 0.01
0.055 0.015 0.01
0.06 0.015 0.01
0.065 0.015 0.01
0.07 0.015 0.01
0.075 0.015 0.01
0.08 0.015 0.01
0.085 0.015 0.01
0.09 0.015 0.01
0.095 0.015 0.01
0.1 0.015 0.01
0 0.02 0.01
0.005 0.02 0.01
0.01 0.02 0.01
0.015 0.02 0.01
0.02 0.02 0.01
0.025 0.02 0.01
0.03 0.02 0.01
0.035 0.02 0.01
0.04 0.02 0.01
0.045 0.02 0.01
0.05 0.02 0.01
0.055 0.02 0.01
0.06 0.02 0.01
0.065 0.02 0.01
0.07 0.02 0.01
0.075 0.02 0.01
0.08 0.02 0.01
0.085 0.02 0.01
0.09 0.02 0.01
0.095 0.02 0.01
0.1 0.02 0.01
0 0.025 0.01
0.005 0.025 0.01
0.01 0.025 0.01
0.015 0.025 0.01
0.02 0.025 0.01
0.025 0.025 0.01
0.03 0.025 0.01
0.035 0.025 0.01
0.04 0.025 0.01
0.045 0.025 0.01
0.05 0.025 0.01
0.055 0.025 0.01
0.06 0.025 0.01
0.065 0.025 0.01
0.07 0.025 0.01
0.075 0.025 0.01
0.08 0.025 0.01
0.085 0.025 0.01
0.09 0.025 0.01
0.095 0.025 0.01
0.1 0.025 0.01
0 0.03 0.01
0.005 0.03 0.01
0.01 0.03 0.01
0.015 0.03 0.01
0.02 0.03 0.01
0.025 0.03 0.01
0.03 0.03 0.01
0.035 0.03 0.01
0.04 0.03 0.01
0.045 0.03 0.01
0.05 0.03 0.01
0.055 0.03 0.01
0.06 0.03 0.01
0.065 0.03 0.01
0.07 0.03 0.01
0.075 0.03 0.01
0.08 0.03 0.01
0.085 0.03 0.01
0.09 0.03 0.01
0.095 0.03 0.01
0.1 0.03 0.01
0 0 0.015
0.005 0 0.015
0.01 0 0.015
0.015 0 0.015
0.02 0 0.015
0.025 0 0.015
0.03 0 0.015
0.035 0 0.015
0.04 0 0.015
0.045 0 0.015
0.05 0 0.015
0.055 0 0.015
0.06 0 0.015
0.065 0 0.015
0.07 0 0.015
0.075 0 0.015
0.08 0 0.015
0.085 0 0.015
0.09 0 0.015
0.095 0 0.015
0.1 0 0.015
0 0.005 0.015
0.005 0.005 0.015
0.01 0.005 0.015
0.015 0.005 0.015
0.02 0.005 0.015
0.025 0.005 0.015
0.03 0.005 0.015
0.035 0.005 0.015
0.04 0.005 0.015
0.045 0.005 0.015
0.05 0.005 0.015
0.055 0.005 0.015
0.06 0.005 0.015
0.065 0.005 0.015
0.07 0.005 0.015
0.075 0.005 0.015
0.08 0.005 0.015
0.085 0.005 0.015
0.09 0.005 0.015
0.095 0.005 0.015
0.1 0.005 0.015
0 0.01 0.015
0.005 0.01 0.015
0.01 0.01 0.015
0.015 0.01 0.015
0.02 0.01 0.015
0.025 0.01 0.015
0.03 0.01 0.015
0.035 0.01 0.015
0.04 0.01 0.015
0.045 0.01 0.015
0.05 0.01 0.015
0.055 0.01 0.015
0.06 0.01 0.015
0.065 0.01 0.015
0.07 0.01 0.015
0.075 0.01 0.015
0.08 0.01 0.015
0.085 0.01 0.015
0.09 0.01 0.015
0.095 0.01 0.015
0.1 0.01 0.015
0 0.015 0.015
0.005 0.015 0.015
0.01 0.015 0.015
0.015 0.015 0.015
0.02 0.015 0.015
0.025 0.015 0.015
0.03 0.015 0.015
0.035 0.015 0.015
0.04 0.015 0.015
0.045 0.015 0.015
0.05 0.015 0.015
0.055 0.015 0.015
0.06 0.015 0.015
0.065 0.015 0.015
0.07 0.015 0.015
0.075 0.015 0.015
0.08 0.015 0.015
0.085 0.015 0.015
0.09 0.015 0.015
0.095 0.015 0.015
0.1 0.015 0.015
0 0.02 0.015
0.005 0.02 0.015
0.01 0.02 0.015
0.015 0.02 0.015
0.02 0.02 0.015
0.025 0.02 0.015
0.03 0.02 0.015
0.035 0.02 0.015
0.04 0.02 0.015
0.045 0.02 0.015
0.05 0.02 0.015
0.055 0.02 0.015
0.06 0.02 0.015
0.065 0.02 0.015
0.07 0.02 0.015
0.075 0.02 0.015
0.08 0.02 0.015
0.085 0.02 0.015
0.09 0.02 0.015
0.095 0.02 0.015
0.1 0.02 0.015
0 0.025 0.015
0.005 0.025 0.015
0.01 0.025 0.015
0.015 0.025 0.015
0.02 0.025 0.015
0.025 0.025 0.015
0.03 0.025 0.015
0.035 0.025 0.015
0.04 0.025 0.015
0.045 0.025 0.015
0.05 0.025 0.015
0.055 0.025 0.015
0.06 0.025 0.015
0.065 0.025 0.015
0.07 0.025 0.015
0.075 0.025 0.015
0.08 0.025 0.015
0.085 0.025 0.015
0.09 0.025 0.015
0.095 0.025 0.015
0.1 0.025 0.015
0 0.03 0.015
0.005 0.03 0.015
0.01 0.03 0.015
0.015 0.03 0.015
0.02 0.03 0.015
0.025 0.03 0.015
0.03 0.03 0.015
0.035 0.03 0.015
0.04 0.03 0.015
0.045 0.03 0.015
0.05 0.03 0.015
0.055 0.03 0.015
0.06 0.03 0.015
0.065 0.03 0.015
0.07 0.03 0.015
0.075 0.03 0.015
0.08 0.03 0.015
0.085 0.03 0.015
0.09 0.03 0.015
0.095 0.03 0.015
0.1 0.03 0.015
0 0 0.02
0.005 0 0.02
0.01 0 0.02
0.015 0 0.02
0.02 0 0.02
0.025 0 0.02
0.03 0 0.02
0.035 0 0.02
0.04 0 0.02
0.045 0 0.02
0.05 0 0.02
0.055 0 0.02
0.06 0 0.02
0.065 0 0.02
0.07 0 0.02
0.075 0 0.02
0.08 0 0.02
0.085 0 0.02
0.09 0 0.02
0.095 0 0.02
0.1 0 0.02
0 0.005 0.02
0.005 0.005 0.02
0.01 0.005 0.02
0.015 0.005 0.02
0.02 0.005 0.02
0.025 0.005 0.02
0.03 0.005 0.02
0.035 0.005 0.02
0.04 0.005 0.02
0.045 0.005 0.02
0.05 0.005 0.02
0.055 0.005 0.02
0.06 0.005 0.02
0.065 0.005 0.02
0.07 0.005 0.02
0.075 0.005 0.02
0.08 0.005 0.02
0.085 0.005 0.02
0.09 0.005 0.02
0.095 0.005 0.02
0.1 0.005 0.02
0 0.01 0.02
0.005 0.01 0.02
0.01 0.01 0.02
0.015 0.01 0.02
0.02 0.01 0.02
0.025 0.01 0.02
0.03 0.01 0.02
0.035 0.01 0.02
0.04 0.01 0.02
0.045 0.01 0.02
0.05 0.01 0.02
0.055 0.01 0.02
0.06 0.01 0.02
0.065 0.01 0.02
0.07 0.01 0.02
0.075 0.01 0.02
0.08 0.01 0.02
0.085 0.01 0.02
0.09 0.01 0.02
0.095 0.01 0.02
[...]
<PointData Vectors="Displacement">
<DataArray type="Float32" Name="Displacement" NumberOfComponents="3" format="ascii">
0 0 0
0.00218389 0.000728764 0.000728764
0.00414572 0.000867084 0.000867084
0.00615124 0.000927697 0.000927697
0.00821868 0.000940575 0.000940575
0.0103179 0.000942862 0.000942862
0.0124315 0.000942337 0.000942337
0.0145501 0.000941756 0.000941756
0.0166702 0.000941429 0.000941429
0.0187907 0.000941292 0.000941292
0.0209112 0.000941246 0.000941246
0.0230317 0.000941242 0.000941242
0.0251522 0.000941266 0.000941266
0.0272725 0.000941319 0.000941319
0.0293925 0.00094139 0.00094139
0.0315115 0.000941319 0.000941319
0.0336279 0.000940568 0.000940568
0.0357391 0.000936667 0.000936667
0.037843 0.000926522 0.000926522
0.0399508 0.000877295 0.000877295
0.042 0.000838188 0.000838188
0 0 0
0.00202695 0.000401629 0.000738351
0.00407055 0.000580527 0.00087931
0.00612129 0.000622012 0.00093068
0.00820842 0.000630853 0.000941778
0.0103151 0.000630272 0.000943096
0.0124309 0.000628917 0.000942367
0.0145501 0.000628061 0.000941739
0.0166703 0.000627679 0.000941415
0.0187908 0.000627538 0.000941284
0.0209113 0.000627497 0.000941243
0.0230317 0.000627497 0.00094124
0.0251522 0.000627525 0.000941264
0.0272726 0.000627596 0.000941319
0.0293927 0.000627726 0.000941404
0.0315122 0.000627859 0.000941395
0.03363 0.00062747 0.000940796
0.0357447 0.000624959 0.000937486
0.0378569 0.000613244 0.000928392
0.0399656 0.000584173 0.000875884
0.042 0.000564332 0.000832704
0 0 0
0.00199954 0.000184131 0.000769923
0.00401097 0.000284145 0.000897143
0.00608819 0.000313685 0.000939497
0.00819372 0.000317074 0.000944594
0.0103098 0.000316024 0.000943915
0.0124293 0.000314798 0.000942512
0.0145497 0.000314145 0.000941734
0.0166703 0.00031387 0.000941392
0.0187908 0.000313774 0.00094127
0.0209113 0.000313748 0.000941235
0.0230317 0.000313749 0.000941236
0.0251522 0.00031377 0.000941261
0.0272727 0.000313823 0.000941325
0.0293931 0.000313932 0.000941455
0.0315132 0.000314072 0.000941591
0.0336326 0.000314003 0.000941435
0.0357499 0.000312291 0.000938946
0.0378614 0.000305235 0.000930708
0.0399666 0.000292127 0.00087367
0.042 0.000283874 0.00082516
0 0 0
0.00199253 1.49932e-19 0.000779535
0.00399521 1.12857e-19 0.000906326
0.00607384 5.46044e-19 0.000943245
0.0081873 6.70342e-19 0.000946154
0.0103073 2.62039e-19 0.000944334
0.0124285 9.06459e-19 0.000942609
0.0145495 8.5493e-19 0.000941738
0.0166702 1.12556e-18 0.000941383
0.0187908 4.47857e-19 0.000941263
0.0209113 1.04589e-18 0.000941231
0.0230317 6.67433e-19 0.000941233
0.0251522 -5.77133e-20 0.00094126
0.0272727 4.48771e-19 0.00094133
0.0293932 2.51644e-19 0.000941482
0.0315137 -5.20914e-19 0.0009417
0.0336338 4.85143e-20 0.000941726
0.0357516 -4.54465e-19 0.000939628
0.0378622 -2.68727e-19 0.000931317
0.0399663 -9.49398e-19 0.000872671
0.042 -6.94507e-19 0.000822667
0 0 0
0.00199954 -0.000184131 0.000769923
0.00401097 -0.000284145 0.000897143
0.00608819 -0.000313685 0.000939497
0.00819372 -0.000317074 0.000944594
0.0103098 -0.000316024 0.000943915
0.0124293 -0.000314798 0.000942512
0.0145497 -0.000314145 0.000941734
0.0166703 -0.00031387 0.000941392
0.0187908 -0.000313774 0.00094127
0.0209113 -0.000313748 0.000941235
0.0230317 -0.000313749 0.000941236
0.0251522 -0.00031377 0.000941261
0.0272727 -0.000313823 0.000941325
0.0293931 -0.000313932 0.000941455
0.0315132 -0.000314072 0.000941591
0.0336326 -0.000314003 0.000941435
0.0357499 -0.000312291 0.000938946
0.0378614 -0.000305235 0.000930708
0.0399666 -0.000292127 0.00087367
0.042 -0.000283874 0.00082516
0 0 0
0.00202695 -0.000401629 0.000738351
0.00407055 -0.000580527 0.00087931
0.00612129 -0.000622012 0.00093068
0.00820842 -0.000630853 0.000941778
0.0103151 -0.000630272 0.000943096
0.0124309 -0.000628917 0.000942367
0.0145501 -0.000628061 0.000941739
0.0166703 -0.000627679 0.000941415
0.0187908 -0.000627538 0.000941284
0.0209113 -0.000627497 0.000941243
0.0230317 -0.000627497 0.00094124
0.0251522 -0.000627525 0.000941264
0.0272726 -0.000627596 0.000941319
0.0293927 -0.000627726 0.000941404
0.0315122 -0.000627859 0.000941395
0.03363 -0.00062747 0.000940796
0.0357447 -0.000624959 0.000937486
0.0378569 -0.000613244 0.000928392
0.0399656 -0.000584173 0.000875884
0.042 -0.000564332 0.000832704
0 0 0
0.00218389 -0.000728764 0.000728764
0.00414572 -0.000867084 0.000867084
0.00615124 -0.000927697 0.000927697
0.00821868 -0.000940575 0.000940575
0.0103179 -0.000942862 0.000942862
0.0124315 -0.000942337 0.000942337
0.0145501 -0.000941756 0.000941756
0.0166702 -0.000941429 0.000941429
0.0187907 -0.000941292 0.000941292
0.0209112 -0.000941246 0.000941246
0.0230317 -0.000941242 0.000941242
0.0251522 -0.000941266 0.000941266
0.0272725 -0.000941319 0.000941319
0.0293925 -0.00094139 0.00094139
0.0315115 -0.000941319 0.000941319
0.0336279 -0.000940568 0.000940568
0.0357391 -0.000936667 0.000936667
0.037843 -0.000926522 0.000926522
0.0399508 -0.000877295 0.000877295
0.042 -0.000838188 0.000838188
0 0 0
0.00202695 0.000738351 0.000401629
0.00407055 0.00087931 0.000580527
0.00612129 0.00093068 0.000622012
0.00820842 0.000941778 0.000630853
0.0103151 0.000943096 0.000630272
0.0124309 0.000942367 0.000628917
0.0145501 0.000941739 0.000628061
0.0166703 0.000941415 0.000627679
0.0187908 0.000941284 0.000627538
0.0209113 0.000941243 0.000627497
0.0230317 0.00094124 0.000627497
0.0251522 0.000941264 0.000627525
0.0272726 0.000941319 0.000627596
0.0293927 0.000941404 0.000627726
0.0315122 0.000941395 0.000627859
0.03363 0.000940796 0.00062747
0.0357447 0.000937486 0.000624959
0.0378569 0.000928392 0.000613244
0.0399656 0.000875884 0.000584173
0.042 0.000832704 0.000564332
0 0 0
0.00186206 0.000399938 0.000399938
0.00399798 0.000580115 0.000580115
0.00609391 0.000621585 0.000621585
0.00819908 0.000630571 0.000630571
0.0103126 0.000630174 0.000630174
0.0124305 0.000628879 0.000628879
0.0145501 0.000628051 0.000628051
0.0166704 0.000627677 0.000627677
0.0187908 0.000627538 0.000627538
0.0209113 0.000627497 0.000627497
0.0230317 0.000627497 0.000627497
0.0251522 0.000627524 0.000627524
0.0272726 0.000627594 0.000627594
0.0293928 0.000627719 0.000627719
0.0315128 0.00062784 0.00062784
0.033632 0.000627433 0.000627433
0.0357501 0.000624975 0.000624975
0.0378713 0.000613297 0.000613297
0.0399814 0.000583967 0.000583967
0.042 0.000563526 0.000563526
0 0 0
0.00183435 0.000179096 0.000414746
0.00393974 0.000280226 0.000592251
0.00606262 0.000311823 0.000627029
0.00818555 0.00031632 0.000632453
0.0103078 0.000315778 0.000630673
0.012429 0.000314737 0.000628968
0.0145498 0.000314136 0.000628044
0.0166704 0.000313872 0.000627661
0.0187908 0.000313777 0.000627528
0.0209113 0.00031375 0.000627492
0.0230317 0.00031375 0.000627494
0.0251522 0.00031377 0.000627522
0.0272727 0.000313819 0.000627597
0.0293932 0.000313915 0.00062775
0.0315138 0.000314019 0.000627971
0.0336345 0.000313866 0.000627841
0.0357552 0.000312017 0.000625951
0.0378763 0.000304958 0.000614354
0.039983 0.000292379 0.00058244
0.042 0.000284409 0.000559345
0 0 0
0.00182653 -6.53814e-20 0.000421306
0.00392467 1.08198e-19 0.000598181
0.00604913 4.01121e-19 0.00062996
0.00817959 6.96323e-19 0.000633528
0.0103055 3.79153e-19 0.000630986
0.0124283 9.17582e-19 0.000629031
0.0145496 9.6893e-19 0.000628046
0.0166703 8.96738e-19 0.000627654
0.0187908 5.12189e-19 0.000627523
0.0209113 1.32228e-18 0.00062749
0.0230317 7.42783e-19 0.000627492
0.0251522 1.26388e-19 0.000627522
0.0272727 5.16153e-19 0.0006276
0.0293933 2.65461e-19 0.00062777
0.0315142 2.25076e-19 0.000628047
0.0336356 -4.81076e-19 0.000628065
0.0357569 -6.7416e-20 0.000626413
0.0378773 -4.38716e-19 0.000614699
0.039983 -4.08262e-19 0.000581729
0.042 -5.40879e-19 0.000557692
0 0 0
0.00183435 -0.000179096 0.000414746
0.00393974 -0.000280226 0.000592251
0.00606262 -0.000311823 0.000627029
0.00818555 -0.00031632 0.000632453
0.0103078 -0.000315778 0.000630673
0.012429 -0.000314737 0.000628968
0.0145498 -0.000314136 0.000628044
0.0166704 -0.000313872 0.000627661
0.0187908 -0.000313777 0.000627528
0.0209113 -0.00031375 0.000627492
0.0230317 -0.00031375 0.000627494
0.0251522 -0.00031377 0.000627522
0.0272727 -0.000313819 0.000627597
0.0293932 -0.000313915 0.00062775
0.0315138 -0.000314019 0.000627971
0.0336345 -0.000313866 0.000627841
0.0357552 -0.000312017 0.000625951
0.0378763 -0.000304958 0.000614354
0.039983 -0.000292379 0.00058244
0.042 -0.000284409 0.000559345
0 0 0
0.00186206 -0.000399938 0.000399938
0.00399798 -0.000580115 0.000580115
0.00609391 -0.000621585 0.000621585
0.00819908 -0.000630571 0.000630571
0.0103126 -0.000630174 0.000630174
0.0124305 -0.000628879 0.000628879
0.0145501 -0.000628051 0.000628051
0.0166704 -0.000627677 0.000627677
0.0187908 -0.000627538 0.000627538
0.0209113 -0.000627497 0.000627497
0.0230317 -0.000627497 0.000627497
0.0251522 -0.000627524 0.000627524
0.0272726 -0.000627594 0.000627594
0.0293928 -0.000627719 0.000627719
0.0315128 -0.00062784 0.00062784
0.033632 -0.000627433 0.000627433
0.0357501 -0.000624975 0.000624975
0.0378713 -0.000613297 0.000613297
0.0399814 -0.000583967 0.000583967
0.042 -0.000563526 0.000563526
0 0 0
0.00202695 -0.000738351 0.000401629
0.00407055 -0.00087931 0.000580527
0.00612129 -0.00093068 0.000622012
0.00820842 -0.000941778 0.000630853
0.0103151 -0.000943096 0.000630272
0.0124309 -0.000942367 0.000628917
0.0145501 -0.000941739 0.000628061
0.0166703 -0.000941415 0.000627679
0.0187908 -0.000941284 0.000627538
0.0209113 -0.000941243 0.000627497
0.0230317 -0.00094124 0.000627497
0.0251522 -0.000941264 0.000627525
0.0272726 -0.000941319 0.000627596
0.0293927 -0.000941404 0.000627726
0.0315122 -0.000941395 0.000627859
0.03363 -0.000940796 0.00062747
0.0357447 -0.000937486 0.000624959
0.0378569 -0.000928392 0.000613244
0.0399656 -0.000875884 0.000584173
0.042 -0.000832704 0.000564332
0 0 0
0.00199954 0.000769923 0.000184131
0.00401097 0.000897143 0.000284145
0.00608819 0.000939497 0.000313685
0.00819372 0.000944594 0.000317074
0.0103098 0.000943915 0.000316024
0.0124293 0.000942512 0.000314798
0.0145497 0.000941734 0.000314145
0.0166703 0.000941392 0.00031387
0.0187908 0.00094127 0.000313774
0.0209113 0.000941235 0.000313748
0.0230317 0.000941236 0.000313749
0.0251522 0.000941261 0.00031377
0.0272727 0.000941325 0.000313823
0.0293931 0.000941455 0.000313932
0.0315132 0.000941591 0.000314072
0.0336326 0.000941435 0.000314003
0.0357499 0.000938946 0.000312291
0.0378614 0.000930708 0.000305235
0.0399666 0.00087367 0.000292127
0.042 0.00082516 0.000283874
0 0 0
0.00183435 0.000414746 0.000179096
0.00393974 0.000592251 0.000280226
0.00606262 0.000627029 0.000311823
0.00818555 0.000632453 0.00031632
0.0103078 0.000630673 0.000315778
0.012429 0.000628968 0.000314737
0.0145498 0.000628044 0.000314136
0.0166704 0.000627661 0.000313872
0.0187908 0.000627528 0.000313777
0.0209113 0.000627492 0.00031375
0.0230317 0.000627494 0.00031375
0.0251522 0.000627522 0.00031377
0.0272727 0.000627597 0.000313819
0.0293932 0.00062775 0.000313915
0.0315138 0.000627971 0.000314019
0.0336345 0.000627841 0.000313866
0.0357552 0.000625951 0.000312017
0.0378763 0.000614354 0.000304958
0.039983 0.00058244 0.000292379
0.042 0.000559345 0.000284409
0 0 0
0.00180845 0.000185165 0.000185165
0.00387923 0.000285204 0.000285204
0.00603093 0.000314345 0.000314345
0.00817212 0.000317178 0.000317178
0.0103031 0.000316006 0.000316006
0.0124277 0.000314774 0.000314774
0.0145495 0.000314132 0.000314132
0.0166703 0.000313865 0.000313865
0.0187909 0.000313772 0.000313772
0.0209113 0.000313748 0.000313748
0.0230317 0.000313749 0.000313749
0.0251522 0.000313769 0.000313769
0.0272728 0.000313821 0.000313821
0.0293935 0.00031393 0.00031393
0.0315148 0.000314079 0.000314079
0.033637 0.000314061 0.000314061
0.0357607 0.000312421 0.000312421
0.0378812 0.000305292 0.000305292
0.0399838 0.000291719 0.000291719
0.042 0.000282739 0.000282739
0 0 0
0.0018012 2.85076e-20 0.000187987
0.00386376 6.48207e-20 0.000287947
0.00601701 3.53616e-19 0.00031577
0.00816618 6.14021e-19 0.000317715
0.0103009 5.71771e-19 0.000316157
0.012427 7.5129e-19 0.000314805
0.0145493 7.72301e-19 0.000314132
0.0166703 1.1192e-18 0.000313861
0.0187909 4.69721e-19 0.00031377
0.0209113 1.10978e-18 0.000313746
0.0230317 9.12515e-19 0.000313748
0.0251522 3.73706e-19 0.000313768
0.0272728 5.29807e-19 0.000313822
0.0293937 8.47698e-19 0.00031394
0.0315152 2.36731e-19 0.000314118
0.0336381 -6.23724e-20 0.000314172
0.0357624 1.46087e-19 0.000312632
0.0378822 -2.99333e-19 0.000305421
0.0399836 -4.59012e-19 0.00029138
0.042 -9.96603e-19 0.000281981
0 0 0
0.00180845 -0.000185165 0.000185165
0.00387923 -0.000285204 0.000285204
0.00603093 -0.000314345 0.000314345
0.00817212 -0.000317178 0.000317178
0.0103031 -0.000316006 0.000316006
0.0124277 -0.000314774 0.000314774
0.0145495 -0.000314132 0.000314132
0.0166703 -0.000313865 0.000313865
0.0187909 -0.000313772 0.000313772
0.0209113 -0.000313748 0.000313748
0.0230317 -0.000313749 0.000313749
0.0251522 -0.000313769 0.000313769
0.0272728 -0.000313821 0.000313821
0.0293935 -0.00031393 0.00031393
0.0315148 -0.000314079 0.000314079
0.033637 -0.000314061 0.000314061
0.0357607 -0.000312421 0.000312421
0.0378812 -0.000305292 0.000305292
0.0399838 -0.000291719 0.000291719
0.042 -0.000282739 0.000282739
0 0 0
0.00183435 -0.000414746 0.000179096
0.00393974 -0.000592251 0.000280226
0.00606262 -0.000627029 0.000311823
0.00818555 -0.000632453 0.00031632
0.0103078 -0.000630673 0.000315778
0.012429 -0.000628968 0.000314737
0.0145498 -0.000628044 0.000314136
0.0166704 -0.000627661 0.000313872
0.0187908 -0.000627528 0.000313777
0.0209113 -0.000627492 0.00031375
0.0230317 -0.000627494 0.00031375
0.0251522 -0.000627522 0.00031377
0.0272727 -0.000627597 0.000313819
0.0293932 -0.00062775 0.000313915
0.0315138 -0.000627971 0.000314019
0.0336345 -0.000627841 0.000313866
0.0357552 -0.000625951 0.000312017
0.0378763 -0.000614354 0.000304958
0.039983 -0.00058244 0.000292379
0.042 -0.000559345 0.000284409
0 0 0
0.00199954 -0.000769923 0.000184131
0.00401097 -0.000897143 0.000284145
0.00608819 -0.000939497 0.000313685
0.00819372 -0.000944594 0.000317074
0.0103098 -0.000943915 0.000316024
0.0124293 -0.000942512 0.000314798
0.0145497 -0.000941734 0.000314145
0.0166703 -0.000941392 0.00031387
0.0187908 -0.00094127 0.000313774
0.0209113 -0.000941235 0.000313748
0.0230317 -0.000941236 0.000313749
0.0251522 -0.000941261 0.00031377
0.0272727 -0.000941325 0.000313823
0.0293931 -0.000941455 0.000313932
0.0315132 -0.000941591 0.000314072
0.0336326 -0.000941435 0.000314003
0.0357499 -0.000938946 0.000312291
0.0378614 -0.000930708 0.000305235
0.0399666 -0.00087367 0.000292127
0.042 -0.00082516 0.000283874
0 0 0
0.00199253 0.000779535 1.76562e-19
0.00399521 0.000906326 4.82605e-20
0.00607384 0.000943245 4.29533e-19
0.0081873 0.000946154 -2.76597e-20
0.0103073 0.000944334 1.64313e-19
0.0124285 0.000942609 1.77373e-19
0.0145495 0.000941738 8.63653e-20
0.0166702 0.000941383 1.40503e-19
0.0187908 0.000941263 -2.84559e-19
0.0209113 0.000941231 8.56627e-19
0.0230317 0.000941233 4.26935e-19
0.0251522 0.00094126 5.04128e-19
0.0272727 0.00094133 2.24436e-18
0.0293932 0.000941482 -2.06458e-19
0.0315137 0.0009417 5.08316e-19
0.0336338 0.000941726 1.53741e-18
0.0357516 0.000939628 6.40225e-19
0.0378622 0.000931317 6.61623e-19
0.0399663 0.000872671 -2.46519e-19
0.042 0.000822667 1.34576e-18
0 0 0
0.00182653 0.000421306 2.23185e-19
0.00392467 0.000598181 1.95584e-19
0.00604913 0.00062996 2.88929e-19
0.00817959 0.000633528 2.11676e-19
0.0103055 0.000630986 1.76226e-19
0.0124283 0.000629031 1.86454e-19
0.0145496 0.000628046 1.35637e-19
0.0166703 0.000627654 1.51091e-19
0.0187908 0.000627523 3.4478e-19
0.0209113 0.00062749 5.11641e-19
0.0230317 0.000627492 6.55112e-19
0.0251522 0.000627522 1.65344e-19
0.0272727 0.0006276 1.50785e-18
0.0293933 0.00062777 5.23524e-19
0.0315142 0.000628047 4.51152e-19
0.0336356 0.000628065 1.43739e-18
0.0357569 0.000626413 1.07055e-18
0.0378773 0.000614699 6.01755e-19
0.039983 0.000581729 3.88674e-19
0.042 0.000557692 4.34918e-19
0 0 0
0.0018012 0.000187987 1.06257e-19
0.00386376 0.000287947 2.2944e-19
0.00601701 0.00031577 2.89565e-19
0.00816618 0.000317715 2.50219e-19
0.0103009 0.000316157 3.04337e-19
0.012427 0.000314805 6.98321e-20
0.0145493 0.000314132 2.51346e-19
0.0166703 0.000313861 9.21806e-20
0.0187909 0.00031377 1.82995e-19
0.0209113 0.000313746 5.11148e-19
0.0230317 0.000313748 4.15553e-19
0.0251522 0.000313768 -1.12412e-19
0.0272728 0.000313822 1.70958e-18
0.0293937 0.00031394 -8.40887e-20
0.0315152 0.000314118 5.34058e-19
0.0336381 0.000314172 1.279e-18
0.0357624 0.000312632 7.09995e-19
0.0378822 0.000305421 4.01791e-19
0.0399836 0.00029138 4.04688e-19
0.042 0.000281981 3.12639e-20
0 0 0
0.00179403 -1.12705e-20 1.81792e-19
0.0038481 8.80426e-20 1.5882e-19
0.00600286 3.2519e-19 1.2867e-19
0.00816018 5.10955e-19 3.56179e-19
0.0102986 5.21822e-19 1.04643e-19
0.0124263 7.41246e-19 1.6397e-20
0.0145492 7.29867e-19 3.95336e-19
0.0166703 9.71941e-19 1.28468e-19
0.0187909 4.32125e-19 3.5068e-20
0.0209113 1.35798e-18 4.76604e-19
0.0230318 1.07965e-18 -1.05499e-19
0.0251522 5.66227e-19 -6.37937e-20
0.0272728 9.71703e-19 9.54111e-19
0.0293938 6.58418e-19 -1.40393e-19
0.0315157 4.26025e-19 1.69918e-19
0.0336393 -2.77067e-19 1.28996e-18
0.0357641 1.17021e-19 9.51917e-19
0.0378831 -4.69019e-19 2.3845e-19
0.0399833 -3.25586e-19 2.97454e-19
0.042 -4.14087e-19 -6.99154e-19
0 0 0
0.0018012 -0.000187987 6.71038e-20
0.00386376 -0.000287947 1.85058e-19
0.00601701 -0.00031577 1.62338e-19
0.00816618 -0.000317715 2.06452e-19
0.0103009 -0.000316157 1.44825e-19
0.012427 -0.000314805 -2.46642e-20
0.0145493 -0.000314132 2.01548e-19
0.0166703 -0.000313861 2.98689e-19
0.0187909 -0.00031377 -1.24622e-19
0.0209113 -0.000313746 1.9687e-19
0.0230317 -0.000313748 5.84199e-20
0.0251522 -0.000313768 -6.4102e-19
0.0272728 -0.000313822 8.25382e-19
0.0293937 -0.00031394 -6.39354e-19
0.0315152 -0.000314118 1.28789e-19
0.0336381 -0.000314172 1.19242e-18
0.0357624 -0.000312632 6.2475e-19
0.0378822 -0.000305421 4.81631e-19
0.0399836 -0.00029138 -5.37555e-19
0.042 -0.000281981 5.87822e-20
0 0 0
0.00182653 -0.000421306 1.81867e-19
0.00392467 -0.000598181 2.74776e-20
0.00604913 -0.00062996 2.5867e-20
0.00817959 -0.000633528 -8.28697e-20
0.0103055 -0.000630986 -1.16253e-19
0.0124283 -0.000629031 -2.9494e-19
0.0145496 -0.000628046 8.21063e-20
0.0166703 -0.000627654 -8.37019e-20
0.0187908 -0.000627523 6.14091e-20
0.0209113 -0.00062749 -1.67267e-19
0.0230317 -0.000627492 -4.34898e-19
0.0251522 -0.000627522 -7.03067e-19
0.0272727 -0.0006276 2.47497e-19
0.0293933 -0.00062777 -8.73592e-19
0.0315142 -0.000628047 -3.45069e-19
0.0336356 -0.000628065 9.66636e-19
0.0357569 -0.000626413 4.68607e-19
0.0378773 -0.000614699 2.47933e-19
0.039983 -0.000581729 -7.86945e-19
0.042 -0.000557692 -7.89319e-19
0 0 0
0.00199253 -0.000779535 5.17968e-20
0.00399521 -0.000906326 1.72108e-19
0.00607384 -0.000943245 -1.15965e-19
0.0081873 -0.000946154 1.2049e-19
0.0103073 -0.000944334 -3.81187e-21
0.0124285 -0.000942609 -3.10923e-19
0.0145495 -0.000941738 3.81863e-19
0.0166702 -0.000941383 7.6981e-20
0.0187908 -0.000941263 2.03758e-19
0.0209113 -0.000941231 -3.17383e-19
0.0230317 -0.000941233 -3.23994e-19
0.0251522 -0.00094126 -7.71115e-19
0.0272727 -0.00094133 -3.77661e-19
0.0293932 -0.000941482 -1.12664e-18
0.0315137 -0.0009417 2.9145e-20
0.0336338 -0.000941726 4.70213e-19
0.0357516 -0.000939628 5.45223e-19
0.0378622 -0.000931317 -3.54388e-20
0.0399663 -0.000872671 5.44784e-20
0.042 -0.000822667 -1.71008e-18
0 0 0
0.00199954 0.000769923 -0.000184131
0.00401097 0.000897143 -0.000284145
0.00608819 0.000939497 -0.000313685
0.00819372 0.000944594 -0.000317074
0.0103098 0.000943915 -0.000316024
0.0124293 0.000942512 -0.000314798
0.0145497 0.000941734 -0.000314145
0.0166703 0.000941392 -0.00031387
0.0187908 0.00094127 -0.000313774
0.0209113 0.000941235 -0.000313748
0.0230317 0.000941236 -0.000313749
0.0251522 0.000941261 -0.00031377
0.0272727 0.000941325 -0.000313823
0.0293931 0.000941455 -0.000313932
0.0315132 0.000941591 -0.000314072