<?xml version="1.0"?>
<VTKFile type="UnstructuredGrid" version="0.1" byte_order="LittleEndian">
<UnstructuredGrid>
<Piece NumberOfPoints="1029" NumberOfCells="720">
<Points>
<DataArray type="Float32" NumberOfComponents="3" format="ascii">
0 0 0
0.005 0 0
0.01 0 0
0.015 0 0
0.02 0 0
0.025 0 0
0.03 0 0
0.035 0 0
0.04 0 0
0.045 0 0
0.05 0 0
0.055 0 0
0.06 0 0
0.065 0 0
0.07 0 0
0.075 0 0
0.08 0 0
0.085 0 0
0.09 0 0
0.095 0 0
0.1 0 0
0 0.005 0
0.005 0.005 0
0.01 0.005 0
0.015 0.005 0
0.02 0.005 0
0.025 0.005 0
0.03 0.005 0
0.035 0.005 0
0.04 0.005 0
0.045 0.005 0
0.05 0.005 0
0.055 0.005 0
0.06 0.005 0
0.065 0.005 0
0.07 0.005 0
0.075 0.005 0
0.08 0.005 0
0.085 0.005 0
0.09 0.005 0
0.095 0.005 0
0.1 0.005 0
0 0.01 0
0.005 0.01 0
0.01 0.01 0
0.015 0.01 0
0.02 0.01 0
0.025 0.01 0
0.03 0.01 0
0.035 0.01 0
0.04 0.01 0
0.045 0.01 0
0.05 0.01 0
0.055 0.01 0
0.06 0.01 0
0.065 0.01 0
0.07 0.01 0
0.075 0.01 0
0.08 0.01 0
0.085 0.01 0
0.09 0.01 0
0.095 0.01 0
0.1 0.01 0
0 0.015 0
0.005 0.015 0
0.01 0.015 0
0.015 0.015 0
0.02 0.015 0
0.025 0.015 0
0.03 0.015 0
0.035 0.015 0
0.04 0.015 0
0.045 0.015 0
0.05 0.015 0
0.055 0.015 0
0.06 0.015 0
0.065 0.015 0
0.07 0.015 0
0.075 0.015 0
0.08 0.015 0
0.085 0.015 0
0.09 0.015 0
0.095 0.015 0
0.1 0.015 0
0 0.02 0
0.005 0.02 0
0.01 0.02 0
0.015 0.02 0
0.02 0.02 0
0.025 0.02 0
0.03 0.02 0
0.035 0.02 0
0.04 0.02 0
0.045 0.02 0
0.05 0.02 0
0.055 0.02 0
0.06 0.02 0
0.065 0.02 0
0.07 0.02 0
0.075 0.02 0
0.08 0.02 0
0.085 0.02 0
0.09 0.02 0
0.095 0.02 0
0.1 0.02 0
0 0.025 0
0.005 0.025 0
0.01 0.025 0
0.015 0.025 0
0.02 0.025 0
0.025 0.025 0
0.03 0.025 0
0.035 0.025 0
0.04 0.025 0
0.045 0.025 0
0.05 0.025 0
0.055 0.025 0
0.06 0.025 0
0.065 0.025 0
0.07 0.025 0
0.075 0.025 0
0.08 0.025 0
0.085 0.025 0
0.09 0.025 0
0.095 0.025 0
0.1 0.025 0
0 0.03 0
0.005 0.03 0
0.01 0.03 0
0.015 0.03 0
0.02 0.03 0
0.025 0.03 0
0.03 0.03 0
0.035 0.03 0
0.04 0.03 0
0.045 0.03 0
0.05 0.03 0
0.055 0.03 0
0.06 0.03 0
0.065 0.03 0
0.07 0.03 0
0.075 0.03 0
0.08 0.03 0
0.085 0.03 0
0.09 0.03 0
0.095 0.03 0
0.1 0.03 0
0 0 0.005
0.005 0 0.005
0.01 0 0.005
0.015 0 0.005
0.02 0 0.005
0.025 0 0.005
0.03 0 0.005
0.035 0 0.005
0.04 0 0.005
0.045 0 0.005
0.05 0 0.005
0.055 0 0.005
0.06 0 0.005
0.065 0 0.005
0.07 0 0.005
0.075 0 0.005
0.08 0 0.005
0.085 0 0.005
0.09 0 0.005
0.095 0 0.005
0.1 0 0.005
0 0.005 0.005
0.005 0.005 0.005
0.01 0.005 0.005
0.015 0.005 0.005
0.02 0.005 0.005
0.025 0.005 0.005
0.03 0.005 0.005
0.035 0.005 0.005
0.04 0.005 0.005
0.045 0.005 0.005
0.05 0.005 0.005
0.055 0.005 0.005
0.06 0.005 0.005
0.065 0.005 0.005
0.07 0.005 0.005
0.075 0.005 0.005
0.08 0.005 0.005
0.085 0.005 0.005
0.09 0.005 0.005
0.095 0.005 0.005
0.1 0.005 0.005
0 0.01 0.005
0.005 0.01 0.005
0.01 0.01 0.005
0.015 0.01 0.005
0.02 0.01 0.005
0.025 0.01 0.005
0.03 0.01 0.005
0.035 0.01 0.005
0.04 0.01 0.005
0.045 0.01 0.005
0.05 0.01 0.005
0.055 0.01 0.005
0.06 0.01 0.005
0.065 0.01 0.005
0.07 0.01 0.005
0.075 0.01 0.005
0.08 0.01 0.005
0.085 0.01 0.005
0.09 0.01 0.005
0.095 0.01 0.005
0.1 0.01 0.005
0 0.015 0.005
0.005 0.015 0.005
0.01 0.015 0.005
0.015 0.015 0.005
0.02 0.015 0.005
0.025 0.015 0.005
0.03 0.015 0.005
0.035 0.015 0.005
0.04 0.015 0.005
0.045 0.015 0.005
0.05 0.015 0.005
0.055 0.015 0.005
0.06 0.015 0.005
0.065 0.015 0.005
0.07 0.015 0.005
0.075 0.015 0.005
0.08 0.015 0.005
0.085 0.015 0.005
0.09 0.015 0.005
0.095 0.015 0.005
0.1 0.015 0.005
0 0.02 0.005
0.005 0.02 0.005
0.01 0.02 0.005
0.015 0.02 0.005
0.02 0.02 0.005
0.025 0.02 0.005
0.03 0.02 0.005
0.035 0.02 0.005
0.04 0.02 0.005
0.045 0.02 0.005
0.05 0.02 0.005
0.055 0.02 0.005
0.06 0.02 0.005
0.065 0.02 0.005
0.07 0.02 0.005
0.075 0.02 0.005
0.08 0.02 0.005
0.085 0.02 0.005
0.09 0.02 0.005
0.095 0.02 0.005
0.1 0.02 0.005
0 0.025 0.005
0.005 0.025 0.005
0.01 0.025 0.005
0.015 0.025 0.005
0.02 0.025 0.005
0.025 0.025 0.005
0.03 0.025 0.005
0.035 0.025 0.005
0.04 0.025 0.005
0.045 0.025 0.005
0.05 0.025 0.005
0.055 0.025 0.005
0.06 0.025 0.005
0.065 0.025 0.005
0.07 0.025 0.005
0.075 0.025 0.005
0.08 0.025 0.005
0.085 0.025 0.005
0.09 0.025 0.005
0.095 0.025 0.005
0.1 0.025 0.005
0 0.03 0.005
0.005 0.03 0.005
0.01 0.03 0.005
0.015 0.03 0.005
0.02 0.03 0.005
0.025 0.03 0.005
0.03 0.03 0.005
0.035 0.03 0.005
0.04 0.03 0.005
0.045 0.03 0.005
0.05 0.03 0.005
0.055 0.03 0.005
0.06 0.03 0.005
0.065 0.03 0.005
0.07 0.03 0.005
0.075 0.03 0.005
0.08 0.03 0.005
0.085 0.03 0.005
0.09 0.03 0.005
0.095 0.03 0.005
0.1 0.03 0.005
0 0 0.01
0.005 0 0.01
0.01 0 0.01
0.015 0 0.01
0.02 0 0.01
0.025 0 0.01
0.03 0 0.01
0.035 0 0.01
0.04 0 0.01
0.045 0 0.01
0.05 0 0.01
0.055 0 0.01
0.06 0 0.01
0.065 0 0.01
0.07 0 0.01
0.075 0 0.01
0.08 0 0.01
0.085 0 0.01
0.09 0 0.01
0.095 0 0.01
0.1 0 0.01
0 0.005 0.01
0.005 0.005 0.01
0.01 0.005 0.01
0.015 0.005 0.01
0.02 0.005 0.01
0.025 0.005 0.01
0.03 0.005 0.01
0.035 0.005 0.01
0.04 0.005 0.01
0.045 0.005 0.01
0.05 0.005 0.01
0.055 0.005 0.01
0.06 0.005 0.01
0.065 0.005 0.01
0.07 0.005 0.01
0.075 0.005 0.01
0.08 0.005 0.01
0.085 0.005 0.01
0.09 0.005 0.01
0.095 0.005 0.01
0.1 0.005 0.01
0 0.01 0.01
0.005 0.01 0.01
0.01 0.01 0.01
0.015 0.01 0.01
0.02 0.01 0.01
0.025 0.01 0.01
0.03 0.01 0.01
0.035 0.01 0.01
0.04 0.01 0.01
0.045 0.01 0.01
0.05 0.01 0.01
0.055 0.01 0.01
0.06 0.01 0.01
0.065 0.01 0.01
0.07 0.01 0.01
0.075 0.01 0.01
0.08 0.01 0.01
0.085 0.01 0.01
0.09 0.01 0.01
0.095 0.01 0.01
0.1 0.01 0.01
0 0.015 0.01
0.005 0.015 0.01
0.01 0.015 0.01
0.015 0.015 0.01
0.02 0.015 0.01
0.025 0.015 0.01
0.03 0.015 0.01
0.035 0.015 0.01
0.04 0.015 0.01
0.045 0.015 0.01
0.05 0.015 0.01
0.055 0.015 0.01
0.06 0.015 0.01
0.065 0.015 0.01
0.07 0.015 0.01
0.075 0.015 0.01
0.08 0.015 0.01
0.085 0.015 0.01
0.09 0.015 0.01
0.095 0.015 0.01
0.1 0.015 0.01
0 0.02 0.01
0.005 0.02 0.01
0.01 0.02 0.01
0.015 0.02 0.01
0.02 0.02 0.01
0.025 0.02 0.01
0.03 0.02 0.01
0.035 0.02 0.01
0.04 0.02 0.01
0.045 0.02 0.01
0.05 0.02 0.01
0.055 0.02 0.01
0.06 0.02 0.01
0.065 0.02 0.01
0.07 0.02 0.01
0.075 0.02 0.01
0.08 0.02 0.01
0.085 0.02 0.01
0.09 0.02 0.01
0.095 0.02 0.01
0.1 0.02 0.01
0 0.025 0.01
0.005 0.025 0.01
0.01 0.025 0.01
0.015 0.025 0.01
0.02 0.025 0.01
0.025 0.025 0.01
0.03 0.025 0.01
0.035 0.025 0.01
0.04 0.025 0.01
0.045 0.025 0.01
0.05 0.025 0.01
0.055 0.025 0.01
0.06 0.025 0.01
0.065 0.025 0.01
0.07 0.025 0.01
0.075 0.025 0.01
0.08 0.025 0.01
0.085 0.025 0.01
0.09 0.025 0.01
0.095 0.025 0.01
0.1 0.025 0.01
0 0.03 0.01
0.005 0.03 0.01
0.01 0.03 0.01
0.015 0.03 0.01
0.02 0.03 0.01
0.025 0.03 0.01
0.03 0.03 0.01
0.035 0.03 0.01
0.04 0.03 0.01
0.045 0.03 0.01
0.05 0.03 0.01
0.055 0.03 0.01
0.06 0.03 0.01
0.065 0.03 0.01
0.07 0.03 0.01
0.075 0.03 0.01
0.08 0.03 0.01
0.085 0.03 0.01
0.09 0.03 0.01
0.095 0.03 0.01
0.1 0.03 0.01
0 0 0.015
0.005 0 0.015
0.01 0 0.015
0.015 0 0.015
0.02 0 0.015
0.025 0 0.015
0.03 0 0.015
0.035 0 0.015
0.04 0 0.015
0.045 0 0.015
0.05 0 0.015
0.055 0 0.015
0.06 0 0.015
0.065 0 0.015
0.07 0 0.015
0.075 0 0.015
0.08 0 0.015
0.085 0 0.015
0.09 0 0.015
0.095 0 0.015
0.1 0 0.015
0 0.005 0.015
0.005 0.005 0.015
0.01 0.005 0.015
0.015 0.005 0.015
0.02 0.005 0.015
0.025 0.005 0.015
0.03 0.005 0.015
0.035 0.005 0.015
0.04 0.005 0.015
0.045 0.005 0.015
0.05 0.005 0.015
0.055 0.005 0.015
0.06 0.005 0.015
0.065 0.005 0.015
0.07 0.005 0.015
0.075 0.005 0.015
0.08 0.005 0.015
0.085 0.005 0.015
0.09 0.005 0.015
0.095 0.005 0.015
0.1 0.005 0.015
0 0.01 0.015
0.005 0.01 0.015
0.01 0.01 0.015
0.015 0.01 0.015
0.02 0.01 0.015
0.025 0.01 0.015
0.03 0.01 0.015
0.035 0.01 0.015
0.04 0.01 0.015
0.045 0.01 0.015
0.05 0.01 0.015
0.055 0.01 0.015
0.06 0.01 0.015
0.065 0.01 0.015
0.07 0.01 0.015
0.075 0.01 0.015
0.08 0.01 0.015
0.085 0.01 0.015
0.09 0.01 0.015
0.095 0.01 0.015
0.1 0.01 0.015
0 0.015 0.015
0.005 0.015 0.015
0.01 0.015 0.015
0.015 0.015 0.015
0.02 0.015 0.015
0.025 0.015 0.015
0.03 0.015 0.015
0.035 0.015 0.015
0.04 0.015 0.015
0.045 0.015 0.015
0.05 0.015 0.015
0.055 0.015 0.015
0.06 0.015 0.015
0.065 0.015 0.015
0.07 0.015 0.015
0.075 0.015 0.015
0.08 0.015 0.015
0.085 0.015 0.015
0.09 0.015 0.015
0.095 0.015 0.015
0.1 0.015 0.015
0 0.02 0.015
0.005 0.02 0.015
0.01 0.02 0.015
0.015 0.02 0.015
0.02 0.02 0.015
0.025 0.02 0.015
0.03 0.02 0.015
0.035 0.02 0.015
0.04 0.02 0.015
0.045 0.02 0.015
0.05 0.02 0.015
0.055 0.02 0.015
0.06 0.02 0.015
0.065 0.02 0.015
0.07 0.02 0.015
0.075 0.02 0.015
0.08 0.02 0.015
0.085 0.02 0.015
0.09 0.02 0.015
0.095 0.02 0.015
0.1 0.02 0.015
0 0.025 0.015
0.005 0.025 0.015
0.01 0.025 0.015
0.015 0.025 0.015
0.02 0.025 0.015
0.025 0.025 0.015
0.03 0.025 0.015
0.035 0.025 0.015
0.04 0.025 0.015
0.045 0.025 0.015
0.05 0.025 0.015
0.055 0.025 0.015
0.06 0.025 0.015
0.065 0.025 0.015
0.07 0.025 0.015
0.075 0.025 0.015
0.08 0.025 0.015
0.085 0.025 0.015
0.09 0.025 0.015
0.095 0.025 0.015
0.1 0.025 0.015
0 0.03 0.015
0.005 0.03 0.015
0.01 0.03 0.015
0.015 0.03 0.015
0.02 0.03 0.015
0.025 0.03 0.015
0.03 0.03 0.015
0.035 0.03 0.015
0.04 0.03 0.015
0.045 0.03 0.015
0.05 0.03 0.015
0.055 0.03 0.015
0.06 0.03 0.015
0.065 0.03 0.015
0.07 0.03 0.015
0.075 0.03 0.015
0.08 0.03 0.015
0.085 0.03 0.015
0.09 0.03 0.015
0.095 0.03 0.015
0.1 0.03 0.015
0 0 0.02
0.005 0 0.02
0.01 0 0.02
0.015 0 0.02
0.02 0 0.02
0.025 0 0.02
0.03 0 0.02
0.035 0 0.02
0.04 0 0.02
0.045 0 0.02
0.05 0 0.02
0.055 0 0.02
0.06 0 0.02
0.065 0 0.02
0.07 0 0.02
0.075 0 0.02
0.08 0 0.02
0.085 0 0.02
0.09 0 0.02
0.095 0 0.02
0.1 0 0.02
0 0.005 0.02
0.005 0.005 0.02
0.01 0.005 0.02
0.015 0.005 0.02
0.02 0.005 0.02
0.025 0.005 0.02
0.03 0.005 0.02
0.035 0.005 0.02
0.04 0.005 0.02
0.045 0.005 0.02
0.05 0.005 0.02
0.055 0.005 0.02
0.06 0.005 0.02
0.065 0.005 0.02
0.07 0.005 0.02
0.075 0.005 0.02
0.08 0.005 0.02
0.085 0.005 0.02
0.09 0.005 0.02
0.095 0.005 0.02
0.1 0.005 0.02
0 0.01 0.02
0.005 0.01 0.02
0.01 0.01 0.02
0.015 0.01 0.02
0.02 0.01 0.02
0.025 0.01 0.02
0.03 0.01 0.02
0.035 0.01 0.02
0.04 0.01 0.02
0.045 0.01 0.02
0.05 0.01 0.02
0.055 0.01 0.02
0.06 0.01 0.02
0.065 0.01 0.02
0.07 0.01 0.02
0.075 0.01 0.02
0.08 0.01 0.02
0.085 0.01 0.02
0.09 0.01 0.02
0.095 0.01 0.02
[...]
<PointData Vectors="Displacement">
<DataArray type="Float32" Name="Displacement" NumberOfComponents="3" format="ascii">
0 0 0
0.00120969 0.00035735 0.00035735
0.0022427 0.000439892 0.000439892
0.00329107 0.000477258 0.000477258
0.00436852 0.000486913 0.000486913
0.00546472 0.000488752 0.000488752
0.00657064 0.000488301 0.000488301
0.0076807 0.000487671 0.000487671
0.00879226 0.000487265 0.000487265
0.00990425 0.000487071 0.000487071
0.0110163 0.000487004 0.000487004
0.0121283 0.000487019 0.000487019
0.0132403 0.000487104 0.000487104
0.0143519 0.000487268 0.000487268
0.0154628 0.000487461 0.000487461
0.0165716 0.000487343 0.000487343
0.0176763 0.000485878 0.000485878
0.0187738 0.000479471 0.000479471
0.0198624 0.000463212 0.000463212
0.020964 0.000396965 0.000396965
0.022 0.000346563 0.000346563
0 0 0
0.00111495 0.000190389 0.000359746
0.00219351 0.000291571 0.000446098
0.00326913 0.000320059 0.000479154
0.0043602 0.000327319 0.00048776
0.00546213 0.00032738 0.00048898
0.0065701 0.000326276 0.000488344
0.00768074 0.000325406 0.000487661
0.00879238 0.000324938 0.000487251
0.00990432 0.000324735 0.00048706
0.0110163 0.000324673 0.000486998
0.0121283 0.000324692 0.000487013
0.0132402 0.000324789 0.000487099
0.014352 0.000324995 0.000487271
0.0154632 0.000325313 0.000487497
0.0165731 0.000325545 0.000487493
0.0176806 0.000324672 0.000486276
0.018784 0.00031999 0.000480643
0.0198849 0.000301906 0.00046531
0.0209876 0.00026336 0.000394758
0.022 0.000238484 0.000339245
0 0 0
0.00110064 8.63675e-05 0.000370383
0.00216002 0.000140635 0.000454142
0.00324758 0.000161051 0.000483958
0.00434927 0.000164792 0.000489679
0.0054576 0.000164446 0.000489652
0.00656853 0.0001635 0.000488512
0.00768033 0.000162851 0.000487675
0.00879233 0.000162519 0.000487231
0.00990435 0.00016238 0.000487042
0.0110163 0.000162339 0.000486985
0.0121283 0.000162354 0.000487003
0.0132403 0.000162422 0.000487095
0.0143522 0.000162572 0.000487293
0.015464 0.000162824 0.000487614
0.0165753 0.000163063 0.000487864
0.0176853 0.000162707 0.000487258
0.0187922 0.000159397 0.000482524
0.0198917 0.000148767 0.000467467
0.0209895 0.000131821 0.000391486
0.022 0.000121649 0.000329887
0 0 0
0.00109696 1.81299e-19 0.000373489
0.00215189 9.4533e-20 0.000457991
0.00323892 3.28071e-19 0.000486002
0.0043446 5.28265e-19 0.000490674
0.00545548 6.15367e-19 0.000489999
0.00656773 6.66616e-19 0.000488612
0.00768008 7.32941e-19 0.000487689
0.00879228 9.50597e-19 0.000487225
0.00990435 5.92717e-19 0.000487034
0.0110164 1.17911e-18 0.000486979
0.0121283 1.0563e-18 0.000486999
0.0132403 1.02082e-18 0.000487095
0.0143524 1.25428e-18 0.000487308
0.0154645 1.86338e-18 0.000487677
0.0165763 1.76104e-18 0.000488058
0.0176873 2.18055e-18 0.000487703
0.0187946 2.20182e-18 0.000483337
0.0198929 1.566e-18 0.000467927
0.0209893 1.43694e-18 0.000390055
0.022 1.93967e-18 0.000326828
0 0 0
0.00110064 -8.63675e-05 0.000370383
0.00216002 -0.000140635 0.000454142
0.00324758 -0.000161051 0.000483958
0.00434927 -0.000164792 0.000489679
0.0054576 -0.000164446 0.000489652
0.00656853 -0.0001635 0.000488512
0.00768033 -0.000162851 0.000487675
0.00879233 -0.000162519 0.000487231
0.00990435 -0.00016238 0.000487042
0.0110163 -0.000162339 0.000486985
0.0121283 -0.000162354 0.000487003
0.0132403 -0.000162422 0.000487095
0.0143522 -0.000162572 0.000487293
0.015464 -0.000162824 0.000487614
0.0165753 -0.000163063 0.000487864
0.0176853 -0.000162707 0.000487258
0.0187922 -0.000159397 0.000482524
0.0198917 -0.000148767 0.000467467
0.0209895 -0.000131821 0.000391486
0.022 -0.000121649 0.000329887
0 0 0
0.00111495 -0.000190389 0.000359746
0.00219351 -0.000291571 0.000446098
0.00326913 -0.000320059 0.000479154
0.0043602 -0.000327319 0.00048776
0.00546213 -0.00032738 0.00048898
0.0065701 -0.000326276 0.000488344
0.00768074 -0.000325406 0.000487661
0.00879238 -0.000324938 0.000487251
0.00990432 -0.000324735 0.00048706
0.0110163 -0.000324673 0.000486998
0.0121283 -0.000324692 0.000487013
0.0132402 -0.000324789 0.000487099
0.014352 -0.000324995 0.000487271
0.0154632 -0.000325313 0.000487497
0.0165731 -0.000325545 0.000487493
0.0176806 -0.000324672 0.000486276
0.018784 -0.00031999 0.000480643
0.0198849 -0.000301906 0.00046531
0.0209876 -0.00026336 0.000394758
0.022 -0.000238484 0.000339245
0 0 0
0.00120969 -0.00035735 0.00035735
0.0022427 -0.000439892 0.000439892
0.00329107 -0.000477258 0.000477258
0.00436852 -0.000486913 0.000486913
0.00546472 -0.000488752 0.000488752
0.00657064 -0.000488301 0.000488301
0.0076807 -0.000487671 0.000487671
0.00879226 -0.000487265 0.000487265
0.00990425 -0.000487071 0.000487071
0.0110163 -0.000487004 0.000487004
0.0121283 -0.000487019 0.000487019
0.0132403 -0.000487104 0.000487104
0.0143519 -0.000487268 0.000487268
0.0154628 -0.000487461 0.000487461
0.0165716 -0.000487343 0.000487343
0.0176763 -0.000485878 0.000485878
0.0187738 -0.000479471 0.000479471
0.0198624 -0.000463212 0.000463212
0.020964 -0.000396965 0.000396965
0.022 -0.000346563 0.000346563
0 0 0
0.00111495 0.000359746 0.000190389
0.00219351 0.000446098 0.000291571
0.00326913 0.000479154 0.000320059
0.0043602 0.00048776 0.000327319
0.00546213 0.00048898 0.00032738
0.0065701 0.000488344 0.000326276
0.00768074 0.000487661 0.000325406
0.00879238 0.000487251 0.000324938
0.00990432 0.00048706 0.000324735
0.0110163 0.000486998 0.000324673
0.0121283 0.000487013 0.000324692
0.0132402 0.000487099 0.000324789
0.014352 0.000487271 0.000324995
0.0154632 0.000487497 0.000325313
0.0165731 0.000487493 0.000325545
0.0176806 0.000486276 0.000324672
0.018784 0.000480643 0.00031999
0.0198849 0.00046531 0.000301906
0.0209876 0.000394758 0.00026336
0.022 0.000339245 0.000238484
0 0 0
0.00101691 0.000189389 0.000189389
0.0021449 0.000291044 0.000291044
0.00324861 0.000319758 0.000319758
0.0043525 0.000327098 0.000327098
0.00545984 0.000327293 0.000327293
0.00656968 0.00032624 0.00032624
0.00768081 0.000325395 0.000325395
0.00879251 0.000324936 0.000324936
0.0099044 0.000324736 0.000324736
0.0110163 0.000324674 0.000324674
0.0121283 0.000324692 0.000324692
0.0132402 0.000324788 0.000324788
0.014352 0.000324989 0.000324989
0.0154635 0.000325296 0.000325296
0.0165745 0.000325504 0.000325504
0.0176845 0.000324602 0.000324602
0.0187939 0.000319963 0.000319963
0.0199084 0.000301892 0.000301892
0.0210129 0.000263158 0.000263158
0.022 0.000237782 0.000237782
0 0 0
0.00100206 8.43035e-05 0.000193898
0.00211181 0.000138746 0.000296024
0.00322787 0.000159929 0.000322561
0.00434228 0.000164263 0.000328288
0.00545564 0.000164236 0.000327688
0.00656824 0.000163435 0.000326337
0.00768044 0.000162837 0.0003254
0.00879247 0.00016252 0.000324923
0.00990443 0.000162384 0.000324724
0.0110164 0.000162342 0.000324666
0.0121283 0.000162355 0.000324686
0.0132403 0.000162421 0.000324785
0.0143522 0.000162561 0.000325001
0.0154643 0.000162785 0.000325365
0.0165766 0.000162959 0.000325736
0.0176891 0.000162481 0.000325199
0.0188021 0.000159022 0.000321114
0.0199161 0.000148508 0.000302734
0.0210158 0.00013228 0.000260983
0.022 0.000122551 0.000232711
0 0 0
0.000997889 6.22785e-20 0.000196026
0.00210384 1.95924e-19 0.000298349
0.00321963 3.47952e-19 0.000324033
0.0043379 5.58523e-19 0.000328952
0.00545368 3.18187e-19 0.000327928
0.00656751 7.87795e-19 0.000326402
0.00768022 6.19722e-19 0.000325408
0.00879242 6.09345e-19 0.000324918
0.00990443 5.13371e-19 0.000324718
0.0110164 1.07762e-18 0.000324661
0.0121283 8.99196e-19 0.000324683
0.0132403 8.9281e-19 0.000324784
0.0143524 1.30036e-18 0.000325011
0.0154647 1.5541e-18 0.000325408
0.0165775 1.73182e-18 0.000325869
0.017691 1.63438e-18 0.000325518
0.0188046 1.55865e-18 0.000321631
0.0199176 1.44461e-18 0.000302952
0.021016 1.44906e-18 0.000259987
0.022 1.48451e-18 0.000230709
0 0 0
0.00100206 -8.43035e-05 0.000193898
0.00211181 -0.000138746 0.000296024
0.00322787 -0.000159929 0.000322561
0.00434228 -0.000164263 0.000328288
0.00545564 -0.000164236 0.000327688
0.00656824 -0.000163435 0.000326337
0.00768044 -0.000162837 0.0003254
0.00879247 -0.00016252 0.000324923
0.00990443 -0.000162384 0.000324724
0.0110164 -0.000162342 0.000324666
0.0121283 -0.000162355 0.000324686
0.0132403 -0.000162421 0.000324785
0.0143522 -0.000162561 0.000325001
0.0154643 -0.000162785 0.000325365
0.0165766 -0.000162959 0.000325736
0.0176891 -0.000162481 0.000325199
0.0188021 -0.000159022 0.000321114
0.0199161 -0.000148508 0.000302734
0.0210158 -0.00013228 0.000260983
0.022 -0.000122551 0.000232711
0 0 0
0.00101691 -0.000189389 0.000189389
0.0021449 -0.000291044 0.000291044
0.00324861 -0.000319758 0.000319758
0.0043525 -0.000327098 0.000327098
0.00545984 -0.000327293 0.000327293
0.00656968 -0.00032624 0.00032624
0.00768081 -0.000325395 0.000325395
0.00879251 -0.000324936 0.000324936
0.0099044 -0.000324736 0.000324736
0.0110163 -0.000324674 0.000324674
0.0121283 -0.000324692 0.000324692
0.0132402 -0.000324788 0.000324788
0.014352 -0.000324989 0.000324989
0.0154635 -0.000325296 0.000325296
0.0165745 -0.000325504 0.000325504
0.0176845 -0.000324602 0.000324602
0.0187939 -0.000319963 0.000319963
0.0199084 -0.000301892 0.000301892
0.0210129 -0.000263158 0.000263158
0.022 -0.000237782 0.000237782
0 0 0
0.00111495 -0.000359746 0.000190389
0.00219351 -0.000446098 0.000291571
0.00326913 -0.000479154 0.000320059
0.0043602 -0.00048776 0.000327319
0.00546213 -0.00048898 0.00032738
0.0065701 -0.000488344 0.000326276
0.00768074 -0.000487661 0.000325406
0.00879238 -0.000487251 0.000324938
0.00990432 -0.00048706 0.000324735
0.0110163 -0.000486998 0.000324673
0.0121283 -0.000487013 0.000324692
0.0132402 -0.000487099 0.000324789
0.014352 -0.000487271 0.000324995
0.0154632 -0.000487497 0.000325313
0.0165731 -0.000487493 0.000325545
0.0176806 -0.000486276 0.000324672
0.018784 -0.000480643 0.00031999
0.0198849 -0.00046531 0.000301906
0.0209876 -0.000394758 0.00026336
0.022 -0.000339245 0.000238484
0 0 0
0.00110064 0.000370383 8.63675e-05
0.00216002 0.000454142 0.000140635
0.00324758 0.000483958 0.000161051
0.00434927 0.000489679 0.000164792
0.0054576 0.000489652 0.000164446
0.00656853 0.000488512 0.0001635
0.00768033 0.000487675 0.000162851
0.00879233 0.000487231 0.000162519
0.00990435 0.000487042 0.00016238
0.0110163 0.000486985 0.000162339
0.0121283 0.000487003 0.000162354
0.0132403 0.000487095 0.000162422
0.0143522 0.000487293 0.000162572
0.015464 0.000487614 0.000162824
0.0165753 0.000487864 0.000163063
0.0176853 0.000487258 0.000162707
0.0187922 0.000482524 0.000159397
0.0198917 0.000467467 0.000148767
0.0209895 0.000391486 0.000131821
0.022 0.000329887 0.000121649
0 0 0
0.00100206 0.000193898 8.43035e-05
0.00211181 0.000296024 0.000138746
0.00322787 0.000322561 0.000159929
0.00434228 0.000328288 0.000164263
0.00545564 0.000327688 0.000164236
0.00656824 0.000326337 0.000163435
0.00768044 0.0003254 0.000162837
0.00879247 0.000324923 0.00016252
0.00990443 0.000324724 0.000162384
0.0110164 0.000324666 0.000162342
0.0121283 0.000324686 0.000162355
0.0132403 0.000324785 0.000162421
0.0143522 0.000325001 0.000162561
0.0154643 0.000325365 0.000162785
0.0165766 0.000325736 0.000162959
0.0176891 0.000325199 0.000162481
0.0188021 0.000321114 0.000159022
0.0199161 0.000302734 0.000148508
0.0210158 0.000260983 0.00013228
0.022 0.000232711 0.000122551
0 0 0
0.000987964 8.60859e-05 8.60859e-05
0.00207807 0.00014061 0.00014061
0.00320686 0.000161132 0.000161132
0.00433204 0.000164785 0.000164785
0.00545153 0.000164412 0.000164412
0.00656686 0.000163476 0.000163476
0.0076801 0.000162838 0.000162838
0.00879244 0.000162513 0.000162513
0.00990446 0.000162378 0.000162378
0.0110164 0.000162339 0.000162339
0.0121283 0.000162352 0.000162352
0.0132403 0.000162419 0.000162419
0.0143525 0.000162567 0.000162567
0.0154651 0.000162816 0.000162816
0.0165786 0.000163064 0.000163064
0.0176937 0.000162749 0.000162749
0.0188107 0.000159455 0.000159455
0.0199237 0.000148695 0.000148695
0.0210178 0.000131388 0.000131388
0.022 0.000120619 0.000120619
0 0 0
0.000984024 9.60277e-20 8.69606e-05
0.00207003 1.4434e-19 0.000141651
0.00319843 3.62507e-19 0.000161812
0.00432763 4.68603e-19 0.000165106
0.00544958 2.58452e-19 0.000164526
0.00656615 6.54346e-19 0.000163507
0.00767989 5.02103e-19 0.000162842
0.0087924 4.96349e-19 0.000162511
0.00990446 3.88583e-19 0.000162375
0.0110164 7.8741e-19 0.000162336
0.0121283 7.3262e-19 0.000162351
0.0132404 6.0646e-19 0.000162419
0.0143526 1.32183e-18 0.000162571
0.0154655 1.40735e-18 0.000162837
0.0165796 1.23097e-18 0.000163129
0.0176957 1.27662e-18 0.000162899
0.0188132 1.34747e-18 0.000159678
0.0199251 1.08241e-18 0.000148753
0.0210178 1.25245e-18 0.000130924
0.022 1.02937e-18 0.000119712
0 0 0
0.000987964 -8.60859e-05 8.60859e-05
0.00207807 -0.00014061 0.00014061
0.00320686 -0.000161132 0.000161132
0.00433204 -0.000164785 0.000164785
0.00545153 -0.000164412 0.000164412
0.00656686 -0.000163476 0.000163476
0.0076801 -0.000162838 0.000162838
0.00879244 -0.000162513 0.000162513
0.00990446 -0.000162378 0.000162378
0.0110164 -0.000162339 0.000162339
0.0121283 -0.000162352 0.000162352
0.0132403 -0.000162419 0.000162419
0.0143525 -0.000162567 0.000162567
0.0154651 -0.000162816 0.000162816
0.0165786 -0.000163064 0.000163064
0.0176937 -0.000162749 0.000162749
0.0188107 -0.000159455 0.000159455
0.0199237 -0.000148695 0.000148695
0.0210178 -0.000131388 0.000131388
0.022 -0.000120619 0.000120619
0 0 0
0.00100206 -0.000193898 8.43035e-05
0.00211181 -0.000296024 0.000138746
0.00322787 -0.000322561 0.000159929
0.00434228 -0.000328288 0.000164263
0.00545564 -0.000327688 0.000164236
0.00656824 -0.000326337 0.000163435
0.00768044 -0.0003254 0.000162837
0.00879247 -0.000324923 0.00016252
0.00990443 -0.000324724 0.000162384
0.0110164 -0.000324666 0.000162342
0.0121283 -0.000324686 0.000162355
0.0132403 -0.000324785 0.000162421
0.0143522 -0.000325001 0.000162561
0.0154643 -0.000325365 0.000162785
0.0165766 -0.000325736 0.000162959
0.0176891 -0.000325199 0.000162481
0.0188021 -0.000321114 0.000159022
0.0199161 -0.000302734 0.000148508
0.0210158 -0.000260983 0.00013228
0.022 -0.000232711 0.000122551
0 0 0
0.00110064 -0.000370383 8.63675e-05
0.00216002 -0.000454142 0.000140635
0.00324758 -0.000483958 0.000161051
0.00434927 -0.000489679 0.000164792
0.0054576 -0.000489652 0.000164446
0.00656853 -0.000488512 0.0001635
0.00768033 -0.000487675 0.000162851
0.00879233 -0.000487231 0.000162519
0.00990435 -0.000487042 0.00016238
0.0110163 -0.000486985 0.000162339
0.0121283 -0.000487003 0.000162354
0.0132403 -0.000487095 0.000162422
0.0143522 -0.000487293 0.000162572
0.015464 -0.000487614 0.000162824
0.0165753 -0.000487864 0.000163063
0.0176853 -0.000487258 0.000162707
0.0187922 -0.000482524 0.000159397
0.0198917 -0.000467467 0.000148767
0.0209895 -0.000391486 0.000131821
0.022 -0.000329887 0.000121649
0 0 0
0.00109696 0.000373489 -3.84427e-20
0.00215189 0.000457991 8.88629e-20
0.00323892 0.000486002 1.7723e-19
0.0043446 0.000490674 5.35503e-20
0.00545548 0.000489999 3.70971e-19
0.00656773 0.000488612 4.09668e-19
0.00768008 0.000487689 5.42554e-19
0.00879228 0.000487225 9.25483e-19
0.00990435 0.000487034 6.91691e-19
0.0110164 0.000486979 1.36287e-18
0.0121283 0.000486999 1.74273e-18
0.0132403 0.000487095 1.48758e-18
0.0143524 0.000487308 2.97175e-18
0.0154645 0.000487677 1.72738e-18
0.0165763 0.000488058 2.19882e-18
0.0176873 0.000487703 3.58256e-18
0.0187946 0.000483337 2.76982e-18
0.0198929 0.000467927 3.52738e-18
0.0209893 0.000390055 2.705e-18
0.022 0.000326828 4.09733e-18
0 0 0
0.000997889 0.000196026 -2.55164e-20
0.00210384 0.000298349 2.12257e-19
0.00321963 0.000324033 3.20896e-19
0.0043379 0.000328952 3.40868e-19
0.00545368 0.000327928 3.19089e-19
0.00656751 0.000326402 4.49567e-19
0.00768022 0.000325408 7.67188e-19
0.00879242 0.000324918 9.34943e-19
0.00990443 0.000324718 1.05847e-18
0.0110164 0.000324661 1.56587e-18
0.0121283 0.000324683 1.639e-18
0.0132403 0.000324784 1.8163e-18
0.0143524 0.000325011 2.60537e-18
0.0154647 0.000325408 2.25984e-18
0.0165775 0.000325869 2.73183e-18
0.017691 0.000325518 3.81373e-18
0.0188046 0.000321631 3.69577e-18
0.0199176 0.000302952 3.49381e-18
0.021016 0.000259987 3.41001e-18
0.022 0.000230709 3.61147e-18
0 0 0
0.000984024 8.69606e-05 1.52987e-19
0.00207003 0.000141651 2.70892e-19
0.00319843 0.000161812 2.92037e-19
0.00432763 0.000165106 3.94157e-19
0.00544958 0.000164526 5.15339e-19
0.00656615 0.000163507 6.78633e-19
0.00767989 0.000162842 9.68341e-19
0.0087924 0.000162511 1.11044e-18
0.00990446 0.000162375 1.10214e-18
0.0110164 0.000162336 1.67058e-18
0.0121283 0.000162351 1.97095e-18
0.0132404 0.000162419 1.91968e-18
0.0143526 0.000162571 2.92259e-18
0.0154655 0.000162837 2.51509e-18
0.0165796 0.000163129 2.95109e-18
0.0176957 0.000162899 3.99755e-18
0.0188132 0.000159678 3.95781e-18
0.0199251 0.000148753 3.82858e-18
0.0210178 0.000130924 3.62683e-18
0.022 0.000119712 4.17093e-18
0 0 0
0.000980127 -4.55458e-20 8.17826e-20
0.00206196 3.87673e-20 2.27701e-19
0.00318992 1.74475e-19 3.88242e-19
0.00432316 3.5002e-19 4.28028e-19
0.00544762 2.92419e-19 5.4568e-19
0.00656544 2.29575e-19 7.03772e-19
0.00767968 4.30317e-19 1.06201e-18
0.00879236 2.59022e-19 1.31548e-18
0.00990447 -2.04977e-20 1.40293e-18
0.0110164 4.50134e-19 1.98754e-18
0.0121283 6.49115e-19 2.11323e-18
0.0132404 5.95836e-19 1.81889e-18
0.0143527 8.51597e-19 3.04318e-18
0.0154659 9.79127e-19 2.56366e-18
0.0165805 1.14736e-18 3.27627e-18
0.0176976 8.85397e-19 4.45888e-18
0.0188157 1.09423e-18 4.08453e-18
0.0199265 7.72006e-19 3.95949e-18
0.0210176 8.54294e-19 4.0687e-18
0.022 1.26666e-18 3.79542e-18
0 0 0
0.000984024 -8.69606e-05 9.77328e-20
0.00207003 -0.000141651 2.86354e-19
0.00319843 -0.000161812 3.18393e-19
0.00432763 -0.000165106 5.46691e-19
0.00544958 -0.000164526 6.48734e-19
0.00656615 -0.000163507 6.23957e-19
0.00767989 -0.000162842 1.22381e-18
0.0087924 -0.000162511 1.43321e-18
0.00990446 -0.000162375 1.7304e-18
0.0110164 -0.000162336 2.11848e-18
0.0121283 -0.000162351 2.38055e-18
0.0132404 -0.000162419 2.3465e-18
0.0143526 -0.000162571 3.11125e-18
0.0154655 -0.000162837 2.85069e-18
0.0165796 -0.000163129 3.41651e-18
0.0176957 -0.000162899 4.42124e-18
0.0188132 -0.000159678 4.621e-18
0.0199251 -0.000148753 4.12317e-18
0.0210178 -0.000130924 4.01728e-18
0.022 -0.000119712 4.37449e-18
0 0 0
0.000997889 -0.000196026 7.8954e-20
0.00210384 -0.000298349 3.15531e-19
0.00321963 -0.000324033 3.99449e-19
0.0043379 -0.000328952 4.68064e-19
0.00545368 -0.000327928 6.46042e-19
0.00656751 -0.000326402 8.26764e-19
0.00768022 -0.000325408 1.10414e-18
0.00879242 -0.000324918 1.52514e-18
0.00990443 -0.000324718 1.9343e-18
0.0110164 -0.000324661 1.83221e-18
0.0121283 -0.000324683 2.2993e-18
0.0132403 -0.000324784 2.41745e-18
0.0143524 -0.000325011 3.26163e-18
0.0154647 -0.000325408 2.80416e-18
0.0165775 -0.000325869 3.4619e-18
0.017691 -0.000325518 4.77902e-18
0.0188046 -0.000321631 4.52241e-18
0.0199176 -0.000302952 4.51685e-18
0.021016 -0.000259987 4.4838e-18
0.022 -0.000230709 4.42584e-18
0 0 0
0.00109696 -0.000373489 7.93701e-21
0.00215189 -0.000457991 3.91257e-19
0.00323892 -0.000486002 3.57976e-19
0.0043446 -0.000490674 7.26719e-19
0.00545548 -0.000489999 7.13543e-19
0.00656773 -0.000488612 8.17273e-19
0.00768008 -0.000487689 1.49004e-18
0.00879228 -0.000487225 1.68541e-18
0.00990435 -0.000487034 2.25406e-18
0.0110164 -0.000486979 2.31279e-18
0.0121283 -0.000486999 2.37039e-18
0.0132403 -0.000487095 2.51001e-18
0.0143524 -0.000487308 3.3e-18
0.0154645 -0.000487677 3.45283e-18
0.0165763 -0.000488058 4.17117e-18
0.0176873 -0.000487703 4.84675e-18
0.0187946 -0.000483337 4.98224e-18
0.0198929 -0.000467927 4.81956e-18
0.0209893 -0.000390055 5.19557e-18
0.022 -0.000326828 3.99785e-18
0 0 0
0.00110064 0.000370383 -8.63675e-05
0.00216002 0.000454142 -0.000140635
0.00324758 0.000483958 -0.000161051
0.00434927 0.000489679 -0.000164792
0.0054576 0.000489652 -0.000164446
0.00656853 0.000488512 -0.0001635
0.00768033 0.000487675 -0.000162851
0.00879233 0.000487231 -0.000162519
0.00990435 0.000487042 -0.00016238
0.0110163 0.000486985 -0.000162339
0.0121283 0.000487003 -0.000162354
0.0132403 0.000487095 -0.000162422