<?xml version="1.0"?>
<VTKFile type="UnstructuredGrid" version="0.1" byte_order="LittleEndian">
<UnstructuredGrid>
<Piece NumberOfPoints="1029" NumberOfCells="720">
<Points>
<DataArray type="Float32" NumberOfComponents="3" format="ascii">
0 0 0
0.005 0 0
0.01 0 0
0.015 0 0
0.02 0 0
0.025 0 0
0.03 0 0
0.035 0 0
0.04 0 0
0.045 0 0
0.05 0 0
0.055 0 0
0.06 0 0
0.065 0 0
0.07 0 0
0.075 0 0
0.08 0 0
0.085 0 0
0.09 0 0
0.095 0 0
0.1 0 0
0 0.005 0
0.005 0.005 0
0.01 0.005 0
0.015 0.005 0
0.02 0.005 0
0.025 0.005 0
0.03 0.005 0
0.035 0.005 0
0.04 0.005 0
0.045 0.005 0
0.05 0.005 0
0.055 0.005 0
0.06 0.005 0
0.065 0.005 0
0.07 0.005 0
0.075 0.005 0
0.08 0.005 0
0.085 0.005 0
0.09 0.005 0
0.095 0.005 0
0.1 0.005 0
0 0.01 0
0.005 0.01 0
0.01 0.01 0
0.015 0.01 0
0.02 0.01 0
0.025 0.01 0
0.03 0.01 0
0.035 0.01 0
0.04 0.01 0
0.045 0.01 0
0.05 0.01 0
0.055 0.01 0
0.06 0.01 0
0.065 0.01 0
0.07 0.01 0
0.075 0.01 0
0.08 0.01 0
0.085 0.01 0
0.09 0.01 0
0.095 0.01 0
0.1 0.01 0
0 0.015 0
0.005 0.015 0
0.01 0.015 0
0.015 0.015 0
0.02 0.015 0
0.025 0.015 0
0.03 0.015 0
0.035 0.015 0
0.04 0.015 0
0.045 0.015 0
0.05 0.015 0
0.055 0.015 0
0.06 0.015 0
0.065 0.015 0
0.07 0.015 0
0.075 0.015 0
0.08 0.015 0
0.085 0.015 0
0.09 0.015 0
0.095 0.015 0
0.1 0.015 0
0 0.02 0
0.005 0.02 0
0.01 0.02 0
0.015 0.02 0
0.02 0.02 0
0.025 0.02 0
0.03 0.02 0
0.035 0.02 0
0.04 0.02 0
0.045 0.02 0
0.05 0.02 0
0.055 0.02 0
0.06 0.02 0
0.065 0.02 0
0.07 0.02 0
0.075 0.02 0
0.08 0.02 0
0.085 0.02 0
0.09 0.02 0
0.095 0.02 0
0.1 0.02 0
0 0.025 0
0.005 0.025 0
0.01 0.025 0
0.015 0.025 0
0.02 0.025 0
0.025 0.025 0
0.03 0.025 0
0.035 0.025 0
0.04 0.025 0
0.045 0.025 0
0.05 0.025 0
0.055 0.025 0
0.06 0.025 0
0.065 0.025 0
0.07 0.025 0
0.075 0.025 0
0.08 0.025 0
0.085 0.025 0
0.09 0.025 0
0.095 0.025 0
0.1 0.025 0
0 0.03 0
0.005 0.03 0
0.01 0.03 0
0.015 0.03 0
0.02 0.03 0
0.025 0.03 0
0.03 0.03 0
0.035 0.03 0
0.04 0.03 0
0.045 0.03 0
0.05 0.03 0
0.055 0.03 0
0.06 0.03 0
0.065 0.03 0
0.07 0.03 0
0.075 0.03 0
0.08 0.03 0
0.085 0.03 0
0.09 0.03 0
0.095 0.03 0
0.1 0.03 0
0 0 0.005
0.005 0 0.005
0.01 0 0.005
0.015 0 0.005
0.02 0 0.005
0.025 0 0.005
0.03 0 0.005
0.035 0 0.005
0.04 0 0.005
0.045 0 0.005
0.05 0 0.005
0.055 0 0.005
0.06 0 0.005
0.065 0 0.005
0.07 0 0.005
0.075 0 0.005
0.08 0 0.005
0.085 0 0.005
0.09 0 0.005
0.095 0 0.005
0.1 0 0.005
0 0.005 0.005
0.005 0.005 0.005
0.01 0.005 0.005
0.015 0.005 0.005
0.02 0.005 0.005
0.025 0.005 0.005
0.03 0.005 0.005
0.035 0.005 0.005
0.04 0.005 0.005
0.045 0.005 0.005
0.05 0.005 0.005
0.055 0.005 0.005
0.06 0.005 0.005
0.065 0.005 0.005
0.07 0.005 0.005
0.075 0.005 0.005
0.08 0.005 0.005
0.085 0.005 0.005
0.09 0.005 0.005
0.095 0.005 0.005
0.1 0.005 0.005
0 0.01 0.005
0.005 0.01 0.005
0.01 0.01 0.005
0.015 0.01 0.005
0.02 0.01 0.005
0.025 0.01 0.005
0.03 0.01 0.005
0.035 0.01 0.005
0.04 0.01 0.005
0.045 0.01 0.005
0.05 0.01 0.005
0.055 0.01 0.005
0.06 0.01 0.005
0.065 0.01 0.005
0.07 0.01 0.005
0.075 0.01 0.005
0.08 0.01 0.005
0.085 0.01 0.005
0.09 0.01 0.005
0.095 0.01 0.005
0.1 0.01 0.005
0 0.015 0.005
0.005 0.015 0.005
0.01 0.015 0.005
0.015 0.015 0.005
0.02 0.015 0.005
0.025 0.015 0.005
0.03 0.015 0.005
0.035 0.015 0.005
0.04 0.015 0.005
0.045 0.015 0.005
0.05 0.015 0.005
0.055 0.015 0.005
0.06 0.015 0.005
0.065 0.015 0.005
0.07 0.015 0.005
0.075 0.015 0.005
0.08 0.015 0.005
0.085 0.015 0.005
0.09 0.015 0.005
0.095 0.015 0.005
0.1 0.015 0.005
0 0.02 0.005
0.005 0.02 0.005
0.01 0.02 0.005
0.015 0.02 0.005
0.02 0.02 0.005
0.025 0.02 0.005
0.03 0.02 0.005
0.035 0.02 0.005
0.04 0.02 0.005
0.045 0.02 0.005
0.05 0.02 0.005
0.055 0.02 0.005
0.06 0.02 0.005
0.065 0.02 0.005
0.07 0.02 0.005
0.075 0.02 0.005
0.08 0.02 0.005
0.085 0.02 0.005
0.09 0.02 0.005
0.095 0.02 0.005
0.1 0.02 0.005
0 0.025 0.005
0.005 0.025 0.005
0.01 0.025 0.005
0.015 0.025 0.005
0.02 0.025 0.005
0.025 0.025 0.005
0.03 0.025 0.005
0.035 0.025 0.005
0.04 0.025 0.005
0.045 0.025 0.005
0.05 0.025 0.005
0.055 0.025 0.005
0.06 0.025 0.005
0.065 0.025 0.005
0.07 0.025 0.005
0.075 0.025 0.005
0.08 0.025 0.005
0.085 0.025 0.005
0.09 0.025 0.005
0.095 0.025 0.005
0.1 0.025 0.005
0 0.03 0.005
0.005 0.03 0.005
0.01 0.03 0.005
0.015 0.03 0.005
0.02 0.03 0.005
0.025 0.03 0.005
0.03 0.03 0.005
0.035 0.03 0.005
0.04 0.03 0.005
0.045 0.03 0.005
0.05 0.03 0.005
0.055 0.03 0.005
0.06 0.03 0.005
0.065 0.03 0.005
0.07 0.03 0.005
0.075 0.03 0.005
0.08 0.03 0.005
0.085 0.03 0.005
0.09 0.03 0.005
0.095 0.03 0.005
0.1 0.03 0.005
0 0 0.01
0.005 0 0.01
0.01 0 0.01
0.015 0 0.01
0.02 0 0.01
0.025 0 0.01
0.03 0 0.01
0.035 0 0.01
0.04 0 0.01
0.045 0 0.01
0.05 0 0.01
0.055 0 0.01
0.06 0 0.01
0.065 0 0.01
0.07 0 0.01
0.075 0 0.01
0.08 0 0.01
0.085 0 0.01
0.09 0 0.01
0.095 0 0.01
0.1 0 0.01
0 0.005 0.01
0.005 0.005 0.01
0.01 0.005 0.01
0.015 0.005 0.01
0.02 0.005 0.01
0.025 0.005 0.01
0.03 0.005 0.01
0.035 0.005 0.01
0.04 0.005 0.01
0.045 0.005 0.01
0.05 0.005 0.01
0.055 0.005 0.01
0.06 0.005 0.01
0.065 0.005 0.01
0.07 0.005 0.01
0.075 0.005 0.01
0.08 0.005 0.01
0.085 0.005 0.01
0.09 0.005 0.01
0.095 0.005 0.01
0.1 0.005 0.01
0 0.01 0.01
0.005 0.01 0.01
0.01 0.01 0.01
0.015 0.01 0.01
0.02 0.01 0.01
0.025 0.01 0.01
0.03 0.01 0.01
0.035 0.01 0.01
0.04 0.01 0.01
0.045 0.01 0.01
0.05 0.01 0.01
0.055 0.01 0.01
0.06 0.01 0.01
0.065 0.01 0.01
0.07 0.01 0.01
0.075 0.01 0.01
0.08 0.01 0.01
0.085 0.01 0.01
0.09 0.01 0.01
0.095 0.01 0.01
0.1 0.01 0.01
0 0.015 0.01
0.005 0.015 0.01
0.01 0.015 0.01
0.015 0.015 0.01
0.02 0.015 0.01
0.025 0.015 0.01
0.03 0.015 0.01
0.035 0.015 0.01
0.04 0.015 0.01
0.045 0.015 0.01
0.05 0.015 0.01
0.055 0.015 0.01
0.06 0.015 0.01
0.065 0.015 0.01
0.07 0.015 0.01
0.075 0.015 0.01
0.08 0.015 0.01
0.085 0.015 0.01
0.09 0.015 0.01
0.095 0.015 0.01
0.1 0.015 0.01
0 0.02 0.01
0.005 0.02 0.01
0.01 0.02 0.01
0.015 0.02 0.01
0.02 0.02 0.01
0.025 0.02 0.01
0.03 0.02 0.01
0.035 0.02 0.01
0.04 0.02 0.01
0.045 0.02 0.01
0.05 0.02 0.01
0.055 0.02 0.01
0.06 0.02 0.01
0.065 0.02 0.01
0.07 0.02 0.01
0.075 0.02 0.01
0.08 0.02 0.01
0.085 0.02 0.01
0.09 0.02 0.01
0.095 0.02 0.01
0.1 0.02 0.01
0 0.025 0.01
0.005 0.025 0.01
0.01 0.025 0.01
0.015 0.025 0.01
0.02 0.025 0.01
0.025 0.025 0.01
0.03 0.025 0.01
0.035 0.025 0.01
0.04 0.025 0.01
0.045 0.025 0.01
0.05 0.025 0.01
0.055 0.025 0.01
0.06 0.025 0.01
0.065 0.025 0.01
0.07 0.025 0.01
0.075 0.025 0.01
0.08 0.025 0.01
0.085 0.025 0.01
0.09 0.025 0.01
0.095 0.025 0.01
0.1 0.025 0.01
0 0.03 0.01
0.005 0.03 0.01
0.01 0.03 0.01
0.015 0.03 0.01
0.02 0.03 0.01
0.025 0.03 0.01
0.03 0.03 0.01
0.035 0.03 0.01
0.04 0.03 0.01
0.045 0.03 0.01
0.05 0.03 0.01
0.055 0.03 0.01
0.06 0.03 0.01
0.065 0.03 0.01
0.07 0.03 0.01
0.075 0.03 0.01
0.08 0.03 0.01
0.085 0.03 0.01
0.09 0.03 0.01
0.095 0.03 0.01
0.1 0.03 0.01
0 0 0.015
0.005 0 0.015
0.01 0 0.015
0.015 0 0.015
0.02 0 0.015
0.025 0 0.015
0.03 0 0.015
0.035 0 0.015
0.04 0 0.015
0.045 0 0.015
0.05 0 0.015
0.055 0 0.015
0.06 0 0.015
0.065 0 0.015
0.07 0 0.015
0.075 0 0.015
0.08 0 0.015
0.085 0 0.015
0.09 0 0.015
0.095 0 0.015
0.1 0 0.015
0 0.005 0.015
0.005 0.005 0.015
0.01 0.005 0.015
0.015 0.005 0.015
0.02 0.005 0.015
0.025 0.005 0.015
0.03 0.005 0.015
0.035 0.005 0.015
0.04 0.005 0.015
0.045 0.005 0.015
0.05 0.005 0.015
0.055 0.005 0.015
0.06 0.005 0.015
0.065 0.005 0.015
0.07 0.005 0.015
0.075 0.005 0.015
0.08 0.005 0.015
0.085 0.005 0.015
0.09 0.005 0.015
0.095 0.005 0.015
0.1 0.005 0.015
0 0.01 0.015
0.005 0.01 0.015
0.01 0.01 0.015
0.015 0.01 0.015
0.02 0.01 0.015
0.025 0.01 0.015
0.03 0.01 0.015
0.035 0.01 0.015
0.04 0.01 0.015
0.045 0.01 0.015
0.05 0.01 0.015
0.055 0.01 0.015
0.06 0.01 0.015
0.065 0.01 0.015
0.07 0.01 0.015
0.075 0.01 0.015
0.08 0.01 0.015
0.085 0.01 0.015
0.09 0.01 0.015
0.095 0.01 0.015
0.1 0.01 0.015
0 0.015 0.015
0.005 0.015 0.015
0.01 0.015 0.015
0.015 0.015 0.015
0.02 0.015 0.015
0.025 0.015 0.015
0.03 0.015 0.015
0.035 0.015 0.015
0.04 0.015 0.015
0.045 0.015 0.015
0.05 0.015 0.015
0.055 0.015 0.015
0.06 0.015 0.015
0.065 0.015 0.015
0.07 0.015 0.015
0.075 0.015 0.015
0.08 0.015 0.015
0.085 0.015 0.015
0.09 0.015 0.015
0.095 0.015 0.015
0.1 0.015 0.015
0 0.02 0.015
0.005 0.02 0.015
0.01 0.02 0.015
0.015 0.02 0.015
0.02 0.02 0.015
0.025 0.02 0.015
0.03 0.02 0.015
0.035 0.02 0.015
0.04 0.02 0.015
0.045 0.02 0.015
0.05 0.02 0.015
0.055 0.02 0.015
0.06 0.02 0.015
0.065 0.02 0.015
0.07 0.02 0.015
0.075 0.02 0.015
0.08 0.02 0.015
0.085 0.02 0.015
0.09 0.02 0.015
0.095 0.02 0.015
0.1 0.02 0.015
0 0.025 0.015
0.005 0.025 0.015
0.01 0.025 0.015
0.015 0.025 0.015
0.02 0.025 0.015
0.025 0.025 0.015
0.03 0.025 0.015
0.035 0.025 0.015
0.04 0.025 0.015
0.045 0.025 0.015
0.05 0.025 0.015
0.055 0.025 0.015
0.06 0.025 0.015
0.065 0.025 0.015
0.07 0.025 0.015
0.075 0.025 0.015
0.08 0.025 0.015
0.085 0.025 0.015
0.09 0.025 0.015
0.095 0.025 0.015
0.1 0.025 0.015
0 0.03 0.015
0.005 0.03 0.015
0.01 0.03 0.015
0.015 0.03 0.015
0.02 0.03 0.015
0.025 0.03 0.015
0.03 0.03 0.015
0.035 0.03 0.015
0.04 0.03 0.015
0.045 0.03 0.015
0.05 0.03 0.015
0.055 0.03 0.015
0.06 0.03 0.015
0.065 0.03 0.015
0.07 0.03 0.015
0.075 0.03 0.015
0.08 0.03 0.015
0.085 0.03 0.015
0.09 0.03 0.015
0.095 0.03 0.015
0.1 0.03 0.015
0 0 0.02
0.005 0 0.02
0.01 0 0.02
0.015 0 0.02
0.02 0 0.02
0.025 0 0.02
0.03 0 0.02
0.035 0 0.02
0.04 0 0.02
0.045 0 0.02
0.05 0 0.02
0.055 0 0.02
0.06 0 0.02
0.065 0 0.02
0.07 0 0.02
0.075 0 0.02
0.08 0 0.02
0.085 0 0.02
0.09 0 0.02
0.095 0 0.02
0.1 0 0.02
0 0.005 0.02
0.005 0.005 0.02
0.01 0.005 0.02
0.015 0.005 0.02
0.02 0.005 0.02
0.025 0.005 0.02
0.03 0.005 0.02
0.035 0.005 0.02
0.04 0.005 0.02
0.045 0.005 0.02
0.05 0.005 0.02
0.055 0.005 0.02
0.06 0.005 0.02
0.065 0.005 0.02
0.07 0.005 0.02
0.075 0.005 0.02
0.08 0.005 0.02
0.085 0.005 0.02
0.09 0.005 0.02
0.095 0.005 0.02
0.1 0.005 0.02
0 0.01 0.02
0.005 0.01 0.02
0.01 0.01 0.02
0.015 0.01 0.02
0.02 0.01 0.02
0.025 0.01 0.02
0.03 0.01 0.02
0.035 0.01 0.02
0.04 0.01 0.02
0.045 0.01 0.02
0.05 0.01 0.02
0.055 0.01 0.02
0.06 0.01 0.02
0.065 0.01 0.02
0.07 0.01 0.02
0.075 0.01 0.02
0.08 0.01 0.02
0.085 0.01 0.02
0.09 0.01 0.02
0.095 0.01 0.02
[...]
<PointData Vectors="Displacement">
<DataArray type="Float32" Name="Displacement" NumberOfComponents="3" format="ascii">
0 0 0
0.0010008 0.00028506 0.00028506
0.00184892 0.000354423 0.000354423
0.00270757 0.000385816 0.000385816
0.00358909 0.000394239 0.000394239
0.00448611 0.000395852 0.000395852
0.00539145 0.000395435 0.000395435
0.00630046 0.000394835 0.000394835
0.00721085 0.00039444 0.00039444
0.00812165 0.000394246 0.000394246
0.00903253 0.000394183 0.000394183
0.00994338 0.00039421 0.00039421
0.0108541 0.000394323 0.000394323
0.0117645 0.000394531 0.000394531
0.012674 0.000394775 0.000394775
0.0135812 0.000394657 0.000394657
0.0144838 0.000392993 0.000392993
0.0153786 0.000385903 0.000385903
0.0162643 0.000367911 0.000367911
0.0171657 0.000297384 0.000297384
0.018 0.000244336 0.000244336
0 0 0
0.00092165 0.000150729 0.000286576
0.00180697 0.000234153 0.000359304
0.00268846 0.000258666 0.000387392
0.0035817 0.000265139 0.000394956
0.00448376 0.000265297 0.000396059
0.00539096 0.000264319 0.000395477
0.00630051 0.000263508 0.000394828
0.00721097 0.000263056 0.000394427
0.00812173 0.000262854 0.000394236
0.00903255 0.000262795 0.000394176
0.00994335 0.000262826 0.000394204
0.0108541 0.000262952 0.000394317
0.0117646 0.000263209 0.000394536
0.0126745 0.000263594 0.000394818
0.0135829 0.000263856 0.000394826
0.0144886 0.000262829 0.000393432
0.0153902 0.000257504 0.000387138
0.0162892 0.0002377 0.00037001
0.0171917 0.000196794 0.000294978
0.018 0.000170752 0.000236622
0 0 0
0.000910086 6.82274e-05 0.000294111
0.00177948 0.000112501 0.000365455
0.0026702 0.00013002 0.000391236
0.00357217 0.000133519 0.000396569
0.0044797 0.00013332 0.000396647
0.0053895 0.000132497 0.000395634
0.0063001 0.000131898 0.000394845
0.00721092 0.000131579 0.00039441
0.00812175 0.000131441 0.000394218
0.00903257 0.000131401 0.000394162
0.00994337 0.000131424 0.000394192
0.0108542 0.000131512 0.000394314
0.0117649 0.000131697 0.000394564
0.0126755 0.000131996 0.000394954
0.0135855 0.00013226 0.00039524
0.014494 0.000131798 0.000394485
0.0153992 0.000128014 0.000389076
0.0162968 0.000116447 0.000372055
0.017194 9.85732e-05 0.00029145
0.018 8.79556e-05 0.000226903
0 0 0
0.000907103 3.557e-20 0.000296296
0.00177294 1.19632e-19 0.000368339
0.002663 3.99536e-19 0.000392866
0.00356813 5.84804e-19 0.000397394
0.00447781 5.67352e-19 0.000396951
0.00538877 9.72148e-19 0.000395726
0.00629987 1.03164e-18 0.00039486
0.00721087 1.329e-18 0.000394405
0.00812175 1.2639e-18 0.000394211
0.00903257 2.36576e-18 0.000394156
0.00994339 2.50848e-18 0.000394188
0.0108542 2.28418e-18 0.000394314
0.0117651 2.79843e-18 0.000394583
0.012676 3.54673e-18 0.000395027
0.0135866 3.69373e-18 0.000395456
0.0144962 4.09285e-18 0.00039496
0.0154018 3.92174e-18 0.000389896
0.016298 4.55212e-18 0.000372457
0.0171938 4.1288e-18 0.000289918
0.018 4.71671e-18 0.000223728
0 0 0
0.000910086 -6.82274e-05 0.000294111
0.00177948 -0.000112501 0.000365455
0.0026702 -0.00013002 0.000391236
0.00357217 -0.000133519 0.000396569
0.0044797 -0.00013332 0.000396647
0.0053895 -0.000132497 0.000395634
0.0063001 -0.000131898 0.000394845
0.00721092 -0.000131579 0.00039441
0.00812175 -0.000131441 0.000394218
0.00903257 -0.000131401 0.000394162
0.00994337 -0.000131424 0.000394192
0.0108542 -0.000131512 0.000394314
0.0117649 -0.000131697 0.000394564
0.0126755 -0.000131996 0.000394954
0.0135855 -0.00013226 0.00039524
0.014494 -0.000131798 0.000394485
0.0153992 -0.000128014 0.000389076
0.0162968 -0.000116447 0.000372055
0.017194 -9.85732e-05 0.00029145
0.018 -8.79556e-05 0.000226903
0 0 0
0.00092165 -0.000150729 0.000286576
0.00180697 -0.000234153 0.000359304
0.00268846 -0.000258666 0.000387392
0.0035817 -0.000265139 0.000394956
0.00448376 -0.000265297 0.000396059
0.00539096 -0.000264319 0.000395477
0.00630051 -0.000263508 0.000394828
0.00721097 -0.000263056 0.000394427
0.00812173 -0.000262854 0.000394236
0.00903255 -0.000262795 0.000394176
0.00994335 -0.000262826 0.000394204
0.0108541 -0.000262952 0.000394317
0.0117646 -0.000263209 0.000394536
0.0126745 -0.000263594 0.000394818
0.0135829 -0.000263856 0.000394826
0.0144886 -0.000262829 0.000393432
0.0153902 -0.000257504 0.000387138
0.0162892 -0.0002377 0.00037001
0.0171917 -0.000196794 0.000294978
0.018 -0.000170752 0.000236622
0 0 0
0.0010008 -0.00028506 0.00028506
0.00184892 -0.000354423 0.000354423
0.00270757 -0.000385816 0.000385816
0.00358909 -0.000394239 0.000394239
0.00448611 -0.000395852 0.000395852
0.00539145 -0.000395435 0.000395435
0.00630046 -0.000394835 0.000394835
0.00721085 -0.00039444 0.00039444
0.00812165 -0.000394246 0.000394246
0.00903253 -0.000394183 0.000394183
0.00994338 -0.00039421 0.00039421
0.0108541 -0.000394323 0.000394323
0.0117645 -0.000394531 0.000394531
0.012674 -0.000394775 0.000394775
0.0135812 -0.000394657 0.000394657
0.0144838 -0.000392993 0.000392993
0.0153786 -0.000385903 0.000385903
0.0162643 -0.000367911 0.000367911
0.0171657 -0.000297384 0.000297384
0.018 -0.000244336 0.000244336
0 0 0
0.00092165 0.000286576 0.000150729
0.00180697 0.000359304 0.000234153
0.00268846 0.000387392 0.000258666
0.0035817 0.000394956 0.000265139
0.00448376 0.000396059 0.000265297
0.00539096 0.000395477 0.000264319
0.00630051 0.000394828 0.000263508
0.00721097 0.000394427 0.000263056
0.00812173 0.000394236 0.000262854
0.00903255 0.000394176 0.000262795
0.00994335 0.000394204 0.000262826
0.0108541 0.000394317 0.000262952
0.0117646 0.000394536 0.000263209
0.0126745 0.000394818 0.000263594
0.0135829 0.000394826 0.000263856
0.0144886 0.000393432 0.000262829
0.0153902 0.000387138 0.000257504
0.0162892 0.00037001 0.0002377
0.0171917 0.000294978 0.000196794
0.018 0.000236622 0.000170752
0 0 0
0.000840064 0.000149966 0.000149966
0.00176534 0.000233682 0.000233682
0.00267047 0.00025841 0.00025841
0.00357482 0.000264948 0.000264948
0.00448168 0.000265218 0.000265218
0.00539057 0.000264286 0.000264286
0.00630058 0.000263498 0.000263498
0.0072111 0.000263054 0.000263054
0.0081218 0.000262855 0.000262855
0.00903256 0.000262795 0.000262795
0.00994333 0.000262826 0.000262826
0.010854 0.00026295 0.00026295
0.0117646 0.000263201 0.000263201
0.0126749 0.000263573 0.000263573
0.0135845 0.000263808 0.000263808
0.0144932 0.000262751 0.000262751
0.0154015 0.000257465 0.000257465
0.0163153 0.000237672 0.000237672
0.0172196 0.000196606 0.000196606
0.018 0.000170106 0.000170106
0 0 0
0.000828019 6.67039e-05 0.000153089
0.0017381 0.000111038 0.000237399
0.00265283 0.000129105 0.000260615
0.00356587 0.000133071 0.000265929
0.0044779 0.000133134 0.00026556
0.00538924 0.000132436 0.000264375
0.00630022 0.000131884 0.000263505
0.00721105 0.000131579 0.000263043
0.00812183 0.000131444 0.000262844
0.00903258 0.000131404 0.000262787
0.00994334 0.000131425 0.000262819
0.0108541 0.00013151 0.000262947
0.0117649 0.000131684 0.000263217
0.0126758 0.000131951 0.000263652
0.0135869 0.000132142 0.000264063
0.0144984 0.000131551 0.000263382
0.0154105 0.000127623 0.000258624
0.0163238 0.000116209 0.00023843
0.0172229 9.90911e-05 0.000194282
0.018 8.89538e-05 0.000164867
0 0 0
0.000824641 -2.80838e-21 0.000154593
0.00173165 1.48947e-19 0.000239115
0.00264595 3.5711e-19 0.000261766
0.00356206 5.04006e-19 0.000266473
0.00447614 7.42535e-19 0.000265766
0.00538856 1.03828e-18 0.000264434
0.00630001 1.21494e-18 0.000263514
0.00721101 1.42088e-18 0.000263039
0.00812183 1.40991e-18 0.000262838
0.00903259 2.24077e-18 0.000262782
0.00994335 2.42191e-18 0.000262815
0.0108542 2.55757e-18 0.000262946
0.0117651 2.89653e-18 0.000263229
0.0126763 3.49997e-18 0.000263702
0.013588 3.55131e-18 0.000264209
0.0145005 3.91645e-18 0.000263717
0.0154132 4.09476e-18 0.000259139
0.0163254 4.57228e-18 0.000238604
0.0172232 4.15611e-18 0.00019322
0.018 4.25003e-18 0.000162796
0 0 0
0.000828019 -6.67039e-05 0.000153089
0.0017381 -0.000111038 0.000237399
0.00265283 -0.000129105 0.000260615
0.00356587 -0.000133071 0.000265929
0.0044779 -0.000133134 0.00026556
0.00538924 -0.000132436 0.000264375
0.00630022 -0.000131884 0.000263505
0.00721105 -0.000131579 0.000263043
0.00812183 -0.000131444 0.000262844
0.00903258 -0.000131404 0.000262787
0.00994334 -0.000131425 0.000262819
0.0108541 -0.00013151 0.000262947
0.0117649 -0.000131684 0.000263217
0.0126758 -0.000131951 0.000263652
0.0135869 -0.000132142 0.000264063
0.0144984 -0.000131551 0.000263382
0.0154105 -0.000127623 0.000258624
0.0163238 -0.000116209 0.00023843
0.0172229 -9.90911e-05 0.000194282
0.018 -8.89538e-05 0.000164867
0 0 0
0.000840064 -0.000149966 0.000149966
0.00176534 -0.000233682 0.000233682
0.00267047 -0.00025841 0.00025841
0.00357482 -0.000264948 0.000264948
0.00448168 -0.000265218 0.000265218
0.00539057 -0.000264286 0.000264286
0.00630058 -0.000263498 0.000263498
0.0072111 -0.000263054 0.000263054
0.0081218 -0.000262855 0.000262855
0.00903256 -0.000262795 0.000262795
0.00994333 -0.000262826 0.000262826
0.010854 -0.00026295 0.00026295
0.0117646 -0.000263201 0.000263201
0.0126749 -0.000263573 0.000263573
0.0135845 -0.000263808 0.000263808
0.0144932 -0.000262751 0.000262751
0.0154015 -0.000257465 0.000257465
0.0163153 -0.000237672 0.000237672
0.0172196 -0.000196606 0.000196606
0.018 -0.000170106 0.000170106
0 0 0
0.00092165 -0.000286576 0.000150729
0.00180697 -0.000359304 0.000234153
0.00268846 -0.000387392 0.000258666
0.0035817 -0.000394956 0.000265139
0.00448376 -0.000396059 0.000265297
0.00539096 -0.000395477 0.000264319
0.00630051 -0.000394828 0.000263508
0.00721097 -0.000394427 0.000263056
0.00812173 -0.000394236 0.000262854
0.00903255 -0.000394176 0.000262795
0.00994335 -0.000394204 0.000262826
0.0108541 -0.000394317 0.000262952
0.0117646 -0.000394536 0.000263209
0.0126745 -0.000394818 0.000263594
0.0135829 -0.000394826 0.000263856
0.0144886 -0.000393432 0.000262829
0.0153902 -0.000387138 0.000257504
0.0162892 -0.00037001 0.0002377
0.0171917 -0.000294978 0.000196794
0.018 -0.000236622 0.000170752
0 0 0
0.000910086 0.000294111 6.82274e-05
0.00177948 0.000365455 0.000112501
0.0026702 0.000391236 0.00013002
0.00357217 0.000396569 0.000133519
0.0044797 0.000396647 0.00013332
0.0053895 0.000395634 0.000132497
0.0063001 0.000394845 0.000131898
0.00721092 0.00039441 0.000131579
0.00812175 0.000394218 0.000131441
0.00903257 0.000394162 0.000131401
0.00994337 0.000394192 0.000131424
0.0108542 0.000394314 0.000131512
0.0117649 0.000394564 0.000131697
0.0126755 0.000394954 0.000131996
0.0135855 0.00039524 0.00013226
0.014494 0.000394485 0.000131798
0.0153992 0.000389076 0.000128014
0.0162968 0.000372055 0.000116447
0.017194 0.00029145 9.85732e-05
0.018 0.000226903 8.79556e-05
0 0 0
0.000828019 0.000153089 6.67039e-05
0.0017381 0.000237399 0.000111038
0.00265283 0.000260615 0.000129105
0.00356587 0.000265929 0.000133071
0.0044779 0.00026556 0.000133134
0.00538924 0.000264375 0.000132436
0.00630022 0.000263505 0.000131884
0.00721105 0.000263043 0.000131579
0.00812183 0.000262844 0.000131444
0.00903258 0.000262787 0.000131404
0.00994334 0.000262819 0.000131425
0.0108541 0.000262947 0.00013151
0.0117649 0.000263217 0.000131684
0.0126758 0.000263652 0.000131951
0.0135869 0.000264063 0.000132142
0.0144984 0.000263382 0.000131551
0.0154105 0.000258624 0.000127623
0.0163238 0.00023843 0.000116209
0.0172229 0.000194282 9.90911e-05
0.018 0.000164867 8.89538e-05
0 0 0
0.000816548 6.79317e-05 6.79317e-05
0.00171044 0.000112395 0.000112395
0.00263495 0.00013003 0.00013003
0.0035569 0.000133496 0.000133496
0.00447418 0.000133285 0.000133285
0.00538795 0.000132474 0.000132474
0.00629989 0.000131887 0.000131887
0.00721102 0.000131574 0.000131574
0.00812186 0.000131439 0.000131439
0.0090326 0.000131401 0.000131401
0.00994335 0.000131422 0.000131422
0.0108542 0.000131509 0.000131509
0.0117652 0.000131691 0.000131691
0.0126768 0.000131987 0.000131987
0.0135894 0.000132257 0.000132257
0.0145036 0.00013183 0.00013183
0.01542 0.000128049 0.000128049
0.0163321 0.00011635 0.00011635
0.0172253 9.81517e-05 9.81517e-05
0.018 8.69804e-05 8.69804e-05
0 0 0
0.000813341 -6.68519e-20 6.85434e-05
0.00170396 1.13949e-19 0.000113157
0.00262794 4.15412e-19 0.000130555
0.00355306 6.87319e-19 0.000133756
0.00447243 7.15308e-19 0.000133383
0.00538729 1.04936e-18 0.000132503
0.00629969 1.18865e-18 0.000131891
0.00721098 1.52081e-18 0.000131572
0.00812186 1.35263e-18 0.000131437
0.00903261 2.25455e-18 0.000131399
0.00994336 2.4606e-18 0.000131421
0.0108542 2.56696e-18 0.000131509
0.0117654 3.12044e-18 0.000131696
0.0126772 3.53958e-18 0.000132011
0.0135904 3.56202e-18 0.000132328
0.0145058 3.79283e-18 0.000131986
0.0154227 4.21157e-18 0.000128266
0.0163336 4.29366e-18 0.000116386
0.0172253 4.01676e-18 9.76599e-05
0.018 4.41959e-18 8.6045e-05
0 0 0
0.000816548 -6.79317e-05 6.79317e-05
0.00171044 -0.000112395 0.000112395
0.00263495 -0.00013003 0.00013003
0.0035569 -0.000133496 0.000133496
0.00447418 -0.000133285 0.000133285
0.00538795 -0.000132474 0.000132474
0.00629989 -0.000131887 0.000131887
0.00721102 -0.000131574 0.000131574
0.00812186 -0.000131439 0.000131439
0.0090326 -0.000131401 0.000131401
0.00994335 -0.000131422 0.000131422
0.0108542 -0.000131509 0.000131509
0.0117652 -0.000131691 0.000131691
0.0126768 -0.000131987 0.000131987
0.0135894 -0.000132257 0.000132257
0.0145036 -0.00013183 0.00013183
0.01542 -0.000128049 0.000128049
0.0163321 -0.00011635 0.00011635
0.0172253 -9.81517e-05 9.81517e-05
0.018 -8.69804e-05 8.69804e-05
0 0 0
0.000828019 -0.000153089 6.67039e-05
0.0017381 -0.000237399 0.000111038
0.00265283 -0.000260615 0.000129105
0.00356587 -0.000265929 0.000133071
0.0044779 -0.00026556 0.000133134
0.00538924 -0.000264375 0.000132436
0.00630022 -0.000263505 0.000131884
0.00721105 -0.000263043 0.000131579
0.00812183 -0.000262844 0.000131444
0.00903258 -0.000262787 0.000131404
0.00994334 -0.000262819 0.000131425
0.0108541 -0.000262947 0.00013151
0.0117649 -0.000263217 0.000131684
0.0126758 -0.000263652 0.000131951
0.0135869 -0.000264063 0.000132142
0.0144984 -0.000263382 0.000131551
0.0154105 -0.000258624 0.000127623
0.0163238 -0.00023843 0.000116209
0.0172229 -0.000194282 9.90911e-05
0.018 -0.000164867 8.89538e-05
0 0 0
0.000910086 -0.000294111 6.82274e-05
0.00177948 -0.000365455 0.000112501
0.0026702 -0.000391236 0.00013002
0.00357217 -0.000396569 0.000133519
0.0044797 -0.000396647 0.00013332
0.0053895 -0.000395634 0.000132497
0.0063001 -0.000394845 0.000131898
0.00721092 -0.00039441 0.000131579
0.00812175 -0.000394218 0.000131441
0.00903257 -0.000394162 0.000131401
0.00994337 -0.000394192 0.000131424
0.0108542 -0.000394314 0.000131512
0.0117649 -0.000394564 0.000131697
0.0126755 -0.000394954 0.000131996
0.0135855 -0.00039524 0.00013226
0.014494 -0.000394485 0.000131798
0.0153992 -0.000389076 0.000128014
0.0162968 -0.000372055 0.000116447
0.017194 -0.00029145 9.85732e-05
0.018 -0.000226903 8.79556e-05
0 0 0
0.000907103 0.000296296 -5.70872e-20
0.00177294 0.000368339 -5.7059e-20
0.002663 0.000392866 -2.02383e-20
0.00356813 0.000397394 -1.78027e-19
0.00447781 0.000396951 -2.68122e-19
0.00538877 0.000395726 -2.90119e-19
0.00629987 0.00039486 -2.7002e-20
0.00721087 0.000394405 -5.5205e-19
0.00812175 0.000394211 -8.7501e-19
0.00903257 0.000394156 -5.1368e-19
0.00994339 0.000394188 -7.53344e-19
0.0108542 0.000394314 -1.27488e-18
0.0117651 0.000394583 -7.58318e-19
0.012676 0.000395027 -2.10114e-18
0.0135866 0.000395456 -2.14513e-18
0.0144962 0.00039496 -1.48445e-18
0.0154018 0.000389896 -1.63056e-18
0.016298 0.000372457 -2.15784e-18
0.0171938 0.000289918 -2.91435e-18
0.018 0.000223728 -1.10343e-18
0 0 0
0.000824641 0.000154593 1.92296e-20
0.00173165 0.000239115 -4.5128e-20
0.00264595 0.000261766 -3.47085e-20
0.00356206 0.000266473 -9.02297e-20
0.00447614 0.000265766 -1.69315e-19
0.00538856 0.000264434 -2.89025e-19
0.00630001 0.000263514 -2.78127e-19
0.00721101 0.000263039 -3.97134e-19
0.00812183 0.000262838 -6.36316e-19
0.00903259 0.000262782 -4.55194e-19
0.00994335 0.000262815 -9.73336e-19
0.0108542 0.000262946 -1.21987e-18
0.0117651 0.000263229 -1.02297e-18
0.0126763 0.000263702 -1.99753e-18
0.013588 0.000264209 -1.95216e-18
0.0145005 0.000263717 -1.15475e-18
0.0154132 0.000259139 -1.56207e-18
0.0163254 0.000238604 -2.23146e-18
0.0172232 0.00019322 -1.9606e-18
0.018 0.000162796 -2.20257e-18
0 0 0
0.000813341 6.85434e-05 -4.93552e-20
0.00170396 0.000113157 3.84048e-20
0.00262794 0.000130555 -1.49051e-19
0.00355306 0.000133756 -8.76717e-21
0.00447243 0.000133383 -1.98531e-19
0.00538729 0.000132503 -3.27914e-19
0.00629969 0.000131891 -2.87963e-19
0.00721098 0.000131572 -5.52709e-19
0.00812186 0.000131437 -5.43122e-19
0.00903261 0.000131399 -6.95116e-19
0.00994336 0.000131421 -9.09309e-19
0.0108542 0.000131509 -1.39312e-18
0.0117654 0.000131696 -9.02952e-19
0.0126772 0.000132011 -1.99815e-18
0.0135904 0.000132328 -1.58394e-18
0.0145058 0.000131986 -1.05864e-18
0.0154227 0.000128266 -1.49799e-18
0.0163336 0.000116386 -2.07862e-18
0.0172253 9.76599e-05 -2.16149e-18
0.018 8.6045e-05 -1.69031e-18
0 0 0
0.000810168 1.49402e-20 -1.2693e-21
0.00169745 1.16852e-19 -1.59359e-19
0.00262086 3.95936e-19 -3.51485e-20
0.00354918 6.16665e-19 -2.88079e-20
0.00447067 6.15542e-19 -2.06343e-19
0.00538663 1.04957e-18 -3.7313e-19
0.00629949 1.13223e-18 -4.68524e-19
0.00721095 1.50353e-18 -2.87937e-19
0.00812186 1.54315e-18 -6.82408e-19
0.00903262 2.30648e-18 -6.88697e-19
0.00994338 2.23055e-18 -1.26626e-18
0.0108543 2.55024e-18 -1.40076e-18
0.0117655 3.15751e-18 -1.21616e-18
0.0126777 3.46287e-18 -1.83551e-18
0.0135915 3.51302e-18 -1.68454e-18
0.014508 3.65366e-18 -1.18049e-18
0.0154254 4.08054e-18 -1.55045e-18
0.0163351 4.32506e-18 -1.83357e-18
0.0172252 3.97365e-18 -1.99178e-18
0.018 4.32709e-18 -2.32426e-18
0 0 0
0.000813341 -6.85434e-05 -2.73447e-20
0.00170396 -0.000113157 -4.8061e-20
0.00262794 -0.000130555 -9.849e-20
0.00355306 -0.000133756 -6.35098e-20
0.00447243 -0.000133383 -2.72042e-19
0.00538729 -0.000132503 -3.5051e-19
0.00629969 -0.000131891 -4.51003e-19
0.00721098 -0.000131572 -4.19311e-19
0.00812186 -0.000131437 -6.96564e-19
0.00903261 -0.000131399 -8.48546e-19
0.00994336 -0.000131421 -1.26094e-18
0.0108542 -0.000131509 -1.49562e-18
0.0117654 -0.000131696 -1.25531e-18
0.0126772 -0.000132011 -1.92485e-18
0.0135904 -0.000132328 -1.8018e-18
0.0145058 -0.000131986 -1.27147e-18
0.0154227 -0.000128266 -1.58309e-18
0.0163336 -0.000116386 -1.64472e-18
0.0172253 -9.76599e-05 -2.25974e-18
0.018 -8.6045e-05 -1.9475e-18
0 0 0
0.000824641 -0.000154593 -8.17768e-21
0.00173165 -0.000239115 7.88601e-20
0.00264595 -0.000261766 -8.94596e-20
0.00356206 -0.000266473 -1.81171e-19
0.00447614 -0.000265766 -2.85444e-19
0.00538856 -0.000264434 -7.07599e-19
0.00630001 -0.000263514 -6.60754e-19
0.00721101 -0.000263039 -7.58321e-19
0.00812183 -0.000262838 -8.64848e-19
0.00903259 -0.000262782 -9.13281e-19
0.00994335 -0.000262815 -1.43258e-18
0.0108542 -0.000262946 -1.7927e-18
0.0117651 -0.000263229 -1.13267e-18
0.0126763 -0.000263702 -2.16992e-18
0.013588 -0.000264209 -2.17153e-18
0.0145005 -0.000263717 -1.38801e-18
0.0154132 -0.000259139 -1.68467e-18
0.0163254 -0.000238604 -1.69577e-18
0.0172232 -0.00019322 -2.4187e-18
0.018 -0.000162796 -2.05031e-18
0 0 0
0.000907103 -0.000296296 -2.0178e-20
0.00177294 -0.000368339 6.77069e-21
0.002663 -0.000392866 -8.5267e-20
0.00356813 -0.000397394 -1.0767e-19
0.00447781 -0.000396951 -5.61846e-19
0.00538877 -0.000395726 -7.68488e-19
0.00629987 -0.00039486 -6.70693e-19
0.00721087 -0.000394405 -8.23092e-19
0.00812175 -0.000394211 -5.98141e-19
0.00903257 -0.000394156 -1.03441e-18
0.00994339 -0.000394188 -1.341e-18
0.0108542 -0.000394314 -2.15716e-18
0.0117651 -0.000394583 -1.49635e-18
0.012676 -0.000395027 -1.79977e-18
0.0135866 -0.000395456 -2.09626e-18
0.0144962 -0.00039496 -1.38259e-18
0.0154018 -0.000389896 -1.61423e-18
0.016298 -0.000372457 -1.74733e-18
0.0171938 -0.000289918 -2.07595e-18
0.018 -0.000223728 -3.04596e-18
0 0 0
0.000910086 0.000294111 -6.82274e-05
0.00177948 0.000365455 -0.000112501
0.0026702 0.000391236 -0.00013002
0.00357217 0.000396569 -0.000133519
0.0044797 0.000396647 -0.00013332
0.0053895 0.000395634 -0.000132497
0.0063001 0.000394845 -0.000131898