<?xml version="1.0"?>
<VTKFile type="UnstructuredGrid" version="0.1" byte_order="LittleEndian">
<UnstructuredGrid>
<Piece NumberOfPoints="1029" NumberOfCells="720">
<Points>
<DataArray type="Float32" NumberOfComponents="3" format="ascii">
0 0 0
0.005 0 0
0.01 0 0
0.015 0 0
0.02 0 0
0.025 0 0
0.03 0 0
0.035 0 0
0.04 0 0
0.045 0 0
0.05 0 0
0.055 0 0
0.06 0 0
0.065 0 0
0.07 0 0
0.075 0 0
0.08 0 0
0.085 0 0
0.09 0 0
0.095 0 0
0.1 0 0
0 0.005 0
0.005 0.005 0
0.01 0.005 0
0.015 0.005 0
0.02 0.005 0
0.025 0.005 0
0.03 0.005 0
0.035 0.005 0
0.04 0.005 0
0.045 0.005 0
0.05 0.005 0
0.055 0.005 0
0.06 0.005 0
0.065 0.005 0
0.07 0.005 0
0.075 0.005 0
0.08 0.005 0
0.085 0.005 0
0.09 0.005 0
0.095 0.005 0
0.1 0.005 0
0 0.01 0
0.005 0.01 0
0.01 0.01 0
0.015 0.01 0
0.02 0.01 0
0.025 0.01 0
0.03 0.01 0
0.035 0.01 0
0.04 0.01 0
0.045 0.01 0
0.05 0.01 0
0.055 0.01 0
0.06 0.01 0
0.065 0.01 0
0.07 0.01 0
0.075 0.01 0
0.08 0.01 0
0.085 0.01 0
0.09 0.01 0
0.095 0.01 0
0.1 0.01 0
0 0.015 0
0.005 0.015 0
0.01 0.015 0
0.015 0.015 0
0.02 0.015 0
0.025 0.015 0
0.03 0.015 0
0.035 0.015 0
0.04 0.015 0
0.045 0.015 0
0.05 0.015 0
0.055 0.015 0
0.06 0.015 0
0.065 0.015 0
0.07 0.015 0
0.075 0.015 0
0.08 0.015 0
0.085 0.015 0
0.09 0.015 0
0.095 0.015 0
0.1 0.015 0
0 0.02 0
0.005 0.02 0
0.01 0.02 0
0.015 0.02 0
0.02 0.02 0
0.025 0.02 0
0.03 0.02 0
0.035 0.02 0
0.04 0.02 0
0.045 0.02 0
0.05 0.02 0
0.055 0.02 0
0.06 0.02 0
0.065 0.02 0
0.07 0.02 0
0.075 0.02 0
0.08 0.02 0
0.085 0.02 0
0.09 0.02 0
0.095 0.02 0
0.1 0.02 0
0 0.025 0
0.005 0.025 0
0.01 0.025 0
0.015 0.025 0
0.02 0.025 0
0.025 0.025 0
0.03 0.025 0
0.035 0.025 0
0.04 0.025 0
0.045 0.025 0
0.05 0.025 0
0.055 0.025 0
0.06 0.025 0
0.065 0.025 0
0.07 0.025 0
0.075 0.025 0
0.08 0.025 0
0.085 0.025 0
0.09 0.025 0
0.095 0.025 0
0.1 0.025 0
0 0.03 0
0.005 0.03 0
0.01 0.03 0
0.015 0.03 0
0.02 0.03 0
0.025 0.03 0
0.03 0.03 0
0.035 0.03 0
0.04 0.03 0
0.045 0.03 0
0.05 0.03 0
0.055 0.03 0
0.06 0.03 0
0.065 0.03 0
0.07 0.03 0
0.075 0.03 0
0.08 0.03 0
0.085 0.03 0
0.09 0.03 0
0.095 0.03 0
0.1 0.03 0
0 0 0.005
0.005 0 0.005
0.01 0 0.005
0.015 0 0.005
0.02 0 0.005
0.025 0 0.005
0.03 0 0.005
0.035 0 0.005
0.04 0 0.005
0.045 0 0.005
0.05 0 0.005
0.055 0 0.005
0.06 0 0.005
0.065 0 0.005
0.07 0 0.005
0.075 0 0.005
0.08 0 0.005
0.085 0 0.005
0.09 0 0.005
0.095 0 0.005
0.1 0 0.005
0 0.005 0.005
0.005 0.005 0.005
0.01 0.005 0.005
0.015 0.005 0.005
0.02 0.005 0.005
0.025 0.005 0.005
0.03 0.005 0.005
0.035 0.005 0.005
0.04 0.005 0.005
0.045 0.005 0.005
0.05 0.005 0.005
0.055 0.005 0.005
0.06 0.005 0.005
0.065 0.005 0.005
0.07 0.005 0.005
0.075 0.005 0.005
0.08 0.005 0.005
0.085 0.005 0.005
0.09 0.005 0.005
0.095 0.005 0.005
0.1 0.005 0.005
0 0.01 0.005
0.005 0.01 0.005
0.01 0.01 0.005
0.015 0.01 0.005
0.02 0.01 0.005
0.025 0.01 0.005
0.03 0.01 0.005
0.035 0.01 0.005
0.04 0.01 0.005
0.045 0.01 0.005
0.05 0.01 0.005
0.055 0.01 0.005
0.06 0.01 0.005
0.065 0.01 0.005
0.07 0.01 0.005
0.075 0.01 0.005
0.08 0.01 0.005
0.085 0.01 0.005
0.09 0.01 0.005
0.095 0.01 0.005
0.1 0.01 0.005
0 0.015 0.005
0.005 0.015 0.005
0.01 0.015 0.005
0.015 0.015 0.005
0.02 0.015 0.005
0.025 0.015 0.005
0.03 0.015 0.005
0.035 0.015 0.005
0.04 0.015 0.005
0.045 0.015 0.005
0.05 0.015 0.005
0.055 0.015 0.005
0.06 0.015 0.005
0.065 0.015 0.005
0.07 0.015 0.005
0.075 0.015 0.005
0.08 0.015 0.005
0.085 0.015 0.005
0.09 0.015 0.005
0.095 0.015 0.005
0.1 0.015 0.005
0 0.02 0.005
0.005 0.02 0.005
0.01 0.02 0.005
0.015 0.02 0.005
0.02 0.02 0.005
0.025 0.02 0.005
0.03 0.02 0.005
0.035 0.02 0.005
0.04 0.02 0.005
0.045 0.02 0.005
0.05 0.02 0.005
0.055 0.02 0.005
0.06 0.02 0.005
0.065 0.02 0.005
0.07 0.02 0.005
0.075 0.02 0.005
0.08 0.02 0.005
0.085 0.02 0.005
0.09 0.02 0.005
0.095 0.02 0.005
0.1 0.02 0.005
0 0.025 0.005
0.005 0.025 0.005
0.01 0.025 0.005
0.015 0.025 0.005
0.02 0.025 0.005
0.025 0.025 0.005
0.03 0.025 0.005
0.035 0.025 0.005
0.04 0.025 0.005
0.045 0.025 0.005
0.05 0.025 0.005
0.055 0.025 0.005
0.06 0.025 0.005
0.065 0.025 0.005
0.07 0.025 0.005
0.075 0.025 0.005
0.08 0.025 0.005
0.085 0.025 0.005
0.09 0.025 0.005
0.095 0.025 0.005
0.1 0.025 0.005
0 0.03 0.005
0.005 0.03 0.005
0.01 0.03 0.005
0.015 0.03 0.005
0.02 0.03 0.005
0.025 0.03 0.005
0.03 0.03 0.005
0.035 0.03 0.005
0.04 0.03 0.005
0.045 0.03 0.005
0.05 0.03 0.005
0.055 0.03 0.005
0.06 0.03 0.005
0.065 0.03 0.005
0.07 0.03 0.005
0.075 0.03 0.005
0.08 0.03 0.005
0.085 0.03 0.005
0.09 0.03 0.005
0.095 0.03 0.005
0.1 0.03 0.005
0 0 0.01
0.005 0 0.01
0.01 0 0.01
0.015 0 0.01
0.02 0 0.01
0.025 0 0.01
0.03 0 0.01
0.035 0 0.01
0.04 0 0.01
0.045 0 0.01
0.05 0 0.01
0.055 0 0.01
0.06 0 0.01
0.065 0 0.01
0.07 0 0.01
0.075 0 0.01
0.08 0 0.01
0.085 0 0.01
0.09 0 0.01
0.095 0 0.01
0.1 0 0.01
0 0.005 0.01
0.005 0.005 0.01
0.01 0.005 0.01
0.015 0.005 0.01
0.02 0.005 0.01
0.025 0.005 0.01
0.03 0.005 0.01
0.035 0.005 0.01
0.04 0.005 0.01
0.045 0.005 0.01
0.05 0.005 0.01
0.055 0.005 0.01
0.06 0.005 0.01
0.065 0.005 0.01
0.07 0.005 0.01
0.075 0.005 0.01
0.08 0.005 0.01
0.085 0.005 0.01
0.09 0.005 0.01
0.095 0.005 0.01
0.1 0.005 0.01
0 0.01 0.01
0.005 0.01 0.01
0.01 0.01 0.01
0.015 0.01 0.01
0.02 0.01 0.01
0.025 0.01 0.01
0.03 0.01 0.01
0.035 0.01 0.01
0.04 0.01 0.01
0.045 0.01 0.01
0.05 0.01 0.01
0.055 0.01 0.01
0.06 0.01 0.01
0.065 0.01 0.01
0.07 0.01 0.01
0.075 0.01 0.01
0.08 0.01 0.01
0.085 0.01 0.01
0.09 0.01 0.01
0.095 0.01 0.01
0.1 0.01 0.01
0 0.015 0.01
0.005 0.015 0.01
0.01 0.015 0.01
0.015 0.015 0.01
0.02 0.015 0.01
0.025 0.015 0.01
0.03 0.015 0.01
0.035 0.015 0.01
0.04 0.015 0.01
0.045 0.015 0.01
0.05 0.015 0.01
0.055 0.015 0.01
0.06 0.015 0.01
0.065 0.015 0.01
0.07 0.015 0.01
0.075 0.015 0.01
0.08 0.015 0.01
0.085 0.015 0.01
0.09 0.015 0.01
0.095 0.015 0.01
0.1 0.015 0.01
0 0.02 0.01
0.005 0.02 0.01
0.01 0.02 0.01
0.015 0.02 0.01
0.02 0.02 0.01
0.025 0.02 0.01
0.03 0.02 0.01
0.035 0.02 0.01
0.04 0.02 0.01
0.045 0.02 0.01
0.05 0.02 0.01
0.055 0.02 0.01
0.06 0.02 0.01
0.065 0.02 0.01
0.07 0.02 0.01
0.075 0.02 0.01
0.08 0.02 0.01
0.085 0.02 0.01
0.09 0.02 0.01
0.095 0.02 0.01
0.1 0.02 0.01
0 0.025 0.01
0.005 0.025 0.01
0.01 0.025 0.01
0.015 0.025 0.01
0.02 0.025 0.01
0.025 0.025 0.01
0.03 0.025 0.01
0.035 0.025 0.01
0.04 0.025 0.01
0.045 0.025 0.01
0.05 0.025 0.01
0.055 0.025 0.01
0.06 0.025 0.01
0.065 0.025 0.01
0.07 0.025 0.01
0.075 0.025 0.01
0.08 0.025 0.01
0.085 0.025 0.01
0.09 0.025 0.01
0.095 0.025 0.01
0.1 0.025 0.01
0 0.03 0.01
0.005 0.03 0.01
0.01 0.03 0.01
0.015 0.03 0.01
0.02 0.03 0.01
0.025 0.03 0.01
0.03 0.03 0.01
0.035 0.03 0.01
0.04 0.03 0.01
0.045 0.03 0.01
0.05 0.03 0.01
0.055 0.03 0.01
0.06 0.03 0.01
0.065 0.03 0.01
0.07 0.03 0.01
0.075 0.03 0.01
0.08 0.03 0.01
0.085 0.03 0.01
0.09 0.03 0.01
0.095 0.03 0.01
0.1 0.03 0.01
0 0 0.015
0.005 0 0.015
0.01 0 0.015
0.015 0 0.015
0.02 0 0.015
0.025 0 0.015
0.03 0 0.015
0.035 0 0.015
0.04 0 0.015
0.045 0 0.015
0.05 0 0.015
0.055 0 0.015
0.06 0 0.015
0.065 0 0.015
0.07 0 0.015
0.075 0 0.015
0.08 0 0.015
0.085 0 0.015
0.09 0 0.015
0.095 0 0.015
0.1 0 0.015
0 0.005 0.015
0.005 0.005 0.015
0.01 0.005 0.015
0.015 0.005 0.015
0.02 0.005 0.015
0.025 0.005 0.015
0.03 0.005 0.015
0.035 0.005 0.015
0.04 0.005 0.015
0.045 0.005 0.015
0.05 0.005 0.015
0.055 0.005 0.015
0.06 0.005 0.015
0.065 0.005 0.015
0.07 0.005 0.015
0.075 0.005 0.015
0.08 0.005 0.015
0.085 0.005 0.015
0.09 0.005 0.015
0.095 0.005 0.015
0.1 0.005 0.015
0 0.01 0.015
0.005 0.01 0.015
0.01 0.01 0.015
0.015 0.01 0.015
0.02 0.01 0.015
0.025 0.01 0.015
0.03 0.01 0.015
0.035 0.01 0.015
0.04 0.01 0.015
0.045 0.01 0.015
0.05 0.01 0.015
0.055 0.01 0.015
0.06 0.01 0.015
0.065 0.01 0.015
0.07 0.01 0.015
0.075 0.01 0.015
0.08 0.01 0.015
0.085 0.01 0.015
0.09 0.01 0.015
0.095 0.01 0.015
0.1 0.01 0.015
0 0.015 0.015
0.005 0.015 0.015
0.01 0.015 0.015
0.015 0.015 0.015
0.02 0.015 0.015
0.025 0.015 0.015
0.03 0.015 0.015
0.035 0.015 0.015
0.04 0.015 0.015
0.045 0.015 0.015
0.05 0.015 0.015
0.055 0.015 0.015
0.06 0.015 0.015
0.065 0.015 0.015
0.07 0.015 0.015
0.075 0.015 0.015
0.08 0.015 0.015
0.085 0.015 0.015
0.09 0.015 0.015
0.095 0.015 0.015
0.1 0.015 0.015
0 0.02 0.015
0.005 0.02 0.015
0.01 0.02 0.015
0.015 0.02 0.015
0.02 0.02 0.015
0.025 0.02 0.015
0.03 0.02 0.015
0.035 0.02 0.015
0.04 0.02 0.015
0.045 0.02 0.015
0.05 0.02 0.015
0.055 0.02 0.015
0.06 0.02 0.015
0.065 0.02 0.015
0.07 0.02 0.015
0.075 0.02 0.015
0.08 0.02 0.015
0.085 0.02 0.015
0.09 0.02 0.015
0.095 0.02 0.015
0.1 0.02 0.015
0 0.025 0.015
0.005 0.025 0.015
0.01 0.025 0.015
0.015 0.025 0.015
0.02 0.025 0.015
0.025 0.025 0.015
0.03 0.025 0.015
0.035 0.025 0.015
0.04 0.025 0.015
0.045 0.025 0.015
0.05 0.025 0.015
0.055 0.025 0.015
0.06 0.025 0.015
0.065 0.025 0.015
0.07 0.025 0.015
0.075 0.025 0.015
0.08 0.025 0.015
0.085 0.025 0.015
0.09 0.025 0.015
0.095 0.025 0.015
0.1 0.025 0.015
0 0.03 0.015
0.005 0.03 0.015
0.01 0.03 0.015
0.015 0.03 0.015
0.02 0.03 0.015
0.025 0.03 0.015
0.03 0.03 0.015
0.035 0.03 0.015
0.04 0.03 0.015
0.045 0.03 0.015
0.05 0.03 0.015
0.055 0.03 0.015
0.06 0.03 0.015
0.065 0.03 0.015
0.07 0.03 0.015
0.075 0.03 0.015
0.08 0.03 0.015
0.085 0.03 0.015
0.09 0.03 0.015
0.095 0.03 0.015
0.1 0.03 0.015
0 0 0.02
0.005 0 0.02
0.01 0 0.02
0.015 0 0.02
0.02 0 0.02
0.025 0 0.02
0.03 0 0.02
0.035 0 0.02
0.04 0 0.02
0.045 0 0.02
0.05 0 0.02
0.055 0 0.02
0.06 0 0.02
0.065 0 0.02
0.07 0 0.02
0.075 0 0.02
0.08 0 0.02
0.085 0 0.02
0.09 0 0.02
0.095 0 0.02
0.1 0 0.02
0 0.005 0.02
0.005 0.005 0.02
0.01 0.005 0.02
0.015 0.005 0.02
0.02 0.005 0.02
0.025 0.005 0.02
0.03 0.005 0.02
0.035 0.005 0.02
0.04 0.005 0.02
0.045 0.005 0.02
0.05 0.005 0.02
0.055 0.005 0.02
0.06 0.005 0.02
0.065 0.005 0.02
0.07 0.005 0.02
0.075 0.005 0.02
0.08 0.005 0.02
0.085 0.005 0.02
0.09 0.005 0.02
0.095 0.005 0.02
0.1 0.005 0.02
0 0.01 0.02
0.005 0.01 0.02
0.01 0.01 0.02
0.015 0.01 0.02
0.02 0.01 0.02
0.025 0.01 0.02
0.03 0.01 0.02
0.035 0.01 0.02
0.04 0.01 0.02
0.045 0.01 0.02
0.05 0.01 0.02
0.055 0.01 0.02
0.06 0.01 0.02
0.065 0.01 0.02
0.07 0.01 0.02
0.075 0.01 0.02
0.08 0.01 0.02
0.085 0.01 0.02
0.09 0.01 0.02
0.095 0.01 0.02
[...]
<PointData Vectors="Displacement">
<DataArray type="Float32" Name="Displacement" NumberOfComponents="3" format="ascii">
0 0 0
0.000678782 0.000180821 0.000180821
0.00124909 0.000228937 0.000228937
0.00182389 0.000250622 0.000250622
0.00241285 0.00025677 0.00025677
0.00301218 0.000257952 0.000257952
0.00361739 0.000257609 0.000257609
0.00422535 0.000257105 0.000257105
0.00483441 0.000256762 0.000256762
0.00544383 0.000256591 0.000256591
0.00605333 0.000256546 0.000256546
0.0066628 0.000256605 0.000256605
0.00727214 0.000256778 0.000256778
0.00788101 0.000257084 0.000257084
0.00848867 0.000257435 0.000257435
0.00909355 0.000257335 0.000257335
0.00969309 0.000255334 0.000255334
0.0102841 0.000247056 0.000247056
0.0108655 0.000225981 0.000225981
0.0114674 0.000148352 0.000148352
0.012 9.11111e-05 9.11111e-05
0 0 0
0.000624758 9.44999e-05 0.000181409
0.00121943 0.000150326 0.000231895
0.00180996 0.000167891 0.00025167
0.00240728 0.000172788 0.000257262
0.00301037 0.000173031 0.000258107
0.00361701 0.000172303 0.000257645
0.0042254 0.000171649 0.000257102
0.00483452 0.000171263 0.000256752
0.00544389 0.000171085 0.000256582
0.00605333 0.000171041 0.000256539
0.00666275 0.000171102 0.000256597
0.00727207 0.000171291 0.000256772
0.00788107 0.000171653 0.00025709
0.00848929 0.000172168 0.000257491
0.00909579 0.000172488 0.000257534
0.00969916 0.000171177 0.000255832
0.0102981 0.000164688 0.000248363
0.0108948 0.000141922 0.000228027
0.0114977 9.71213e-05 0.000145626
0.012 6.92373e-05 8.2821e-05
0 0 0
0.000617269 4.26385e-05 0.000185201
0.00120119 7.17491e-05 0.000235447
0.00179723 8.42031e-05 0.000254069
0.00240035 8.70291e-05 0.00025835
0.00300727 8.70131e-05 0.000258533
0.00361585 8.64225e-05 0.00025777
0.00422506 8.59483e-05 0.00025712
0.00483447 8.5678e-05 0.00025674
0.0054439 8.55565e-05 0.000256566
0.00605334 8.55273e-05 0.000256524
0.00666276 8.55695e-05 0.000256585
0.00727218 8.56996e-05 0.00025677
0.00788153 8.59563e-05 0.000257131
0.00849063 8.63441e-05 0.00025766
0.009099 8.66463e-05 0.000258017
0.0097056 8.59712e-05 0.000256978
0.0103085 8.13372e-05 0.000250339
0.0109035 6.81896e-05 0.000229823
0.0115005 4.88074e-05 0.000141693
0.012 3.74792e-05 7.25938e-05
0 0 0
0.000615316 6.88842e-19 0.000186292
0.00119699 1.12191e-18 0.000237051
0.00179237 1.18184e-18 0.000255076
0.00239745 1.07023e-18 0.000258896
0.00300584 5.58851e-19 0.000258751
0.00361526 3.85541e-20 0.000257842
0.00422487 -8.43269e-19 0.000257135
0.00483442 -1.2031e-18 0.000256737
0.0054439 -1.82687e-18 0.00025656
0.00605334 -1.37579e-18 0.000256518
0.00666278 -2.36016e-19 0.00025658
0.00727225 1.01859e-18 0.000256772
0.00788177 1.79764e-18 0.000257156
0.00849127 1.48748e-18 0.000257751
0.00910041 3.47432e-19 0.000258265
0.00970819 -7.54884e-19 0.000257492
0.0103115 -1.2718e-18 0.000251145
0.0109049 -1.48291e-18 0.000230112
0.0115004 -6.50017e-19 0.000140004
0.012 5.72004e-19 6.92544e-05
0 0 0
0.000617269 -4.26385e-05 0.000185201
0.00120119 -7.17491e-05 0.000235447
0.00179723 -8.42031e-05 0.000254069
0.00240035 -8.70291e-05 0.00025835
0.00300727 -8.70131e-05 0.000258533
0.00361585 -8.64225e-05 0.00025777
0.00422506 -8.59483e-05 0.00025712
0.00483447 -8.5678e-05 0.00025674
0.0054439 -8.55565e-05 0.000256566
0.00605334 -8.55273e-05 0.000256524
0.00666276 -8.55695e-05 0.000256585
0.00727218 -8.56996e-05 0.00025677
0.00788153 -8.59563e-05 0.000257131
0.00849063 -8.63441e-05 0.00025766
0.009099 -8.66463e-05 0.000258017
0.0097056 -8.59712e-05 0.000256978
0.0103085 -8.13372e-05 0.000250339
0.0109035 -6.81896e-05 0.000229823
0.0115005 -4.88074e-05 0.000141693
0.012 -3.74792e-05 7.25938e-05
0 0 0
0.000624758 -9.44999e-05 0.000181409
0.00121943 -0.000150326 0.000231895
0.00180996 -0.000167891 0.00025167
0.00240728 -0.000172788 0.000257262
0.00301037 -0.000173031 0.000258107
0.00361701 -0.000172303 0.000257645
0.0042254 -0.000171649 0.000257102
0.00483452 -0.000171263 0.000256752
0.00544389 -0.000171085 0.000256582
0.00605333 -0.000171041 0.000256539
0.00666275 -0.000171102 0.000256597
0.00727207 -0.000171291 0.000256772
0.00788107 -0.000171653 0.00025709
0.00848929 -0.000172168 0.000257491
0.00909579 -0.000172488 0.000257534
0.00969916 -0.000171177 0.000255832
0.0102981 -0.000164688 0.000248363
0.0108948 -0.000141922 0.000228027
0.0114977 -9.71213e-05 0.000145626
0.012 -6.92373e-05 8.2821e-05
0 0 0
0.000678782 -0.000180821 0.000180821
0.00124909 -0.000228937 0.000228937
0.00182389 -0.000250622 0.000250622
0.00241285 -0.00025677 0.00025677
0.00301218 -0.000257952 0.000257952
0.00361739 -0.000257609 0.000257609
0.00422535 -0.000257105 0.000257105
0.00483441 -0.000256762 0.000256762
0.00544383 -0.000256591 0.000256591
0.00605333 -0.000256546 0.000256546
0.0066628 -0.000256605 0.000256605
0.00727214 -0.000256778 0.000256778
0.00788101 -0.000257084 0.000257084
0.00848867 -0.000257435 0.000257435
0.00909355 -0.000257335 0.000257335
0.00969309 -0.000255334 0.000255334
0.0102841 -0.000247056 0.000247056
0.0108655 -0.000225981 0.000225981
0.0114674 -0.000148352 0.000148352
0.012 -9.11111e-05 9.11111e-05
0 0 0
0.000624758 0.000181409 9.44999e-05
0.00121943 0.000231895 0.000150326
0.00180996 0.00025167 0.000167891
0.00240728 0.000257262 0.000172788
0.00301037 0.000258107 0.000173031
0.00361701 0.000257645 0.000172303
0.0042254 0.000257102 0.000171649
0.00483452 0.000256752 0.000171263
0.00544389 0.000256582 0.000171085
0.00605333 0.000256539 0.000171041
0.00666275 0.000256597 0.000171102
0.00727207 0.000256772 0.000171291
0.00788107 0.00025709 0.000171653
0.00848929 0.000257491 0.000172168
0.00909579 0.000257534 0.000172488
0.00969916 0.000255832 0.000171177
0.0102981 0.000248363 0.000164688
0.0108948 0.000228027 0.000141922
0.0114977 0.000145626 9.71213e-05
0.012 8.2821e-05 6.92373e-05
0 0 0
0.000569422 9.4085e-05 9.4085e-05
0.00118981 0.000149989 0.000149989
0.0017967 0.000167715 0.000167715
0.00240207 0.000172654 0.000172654
0.00300873 0.000172972 0.000172972
0.00361671 0.000172277 0.000172277
0.00422548 0.000171641 0.000171641
0.00483464 0.000171261 0.000171261
0.00544396 0.000171085 0.000171085
0.00605333 0.000171042 0.000171042
0.00666269 0.000171102 0.000171102
0.00727198 0.000171288 0.000171288
0.0078811 0.000171643 0.000171643
0.00848983 0.000172142 0.000172142
0.00909785 0.000172429 0.000172429
0.00970492 0.000171085 0.000171085
0.0103119 0.000164629 0.000164629
0.0109254 0.00014188 0.00014188
0.0115301 9.6967e-05 9.6967e-05
0.012 6.87093e-05 6.87093e-05
0 0 0
0.000561593 4.18217e-05 9.56051e-05
0.00117166 7.08904e-05 0.000152049
0.00178431 8.36158e-05 0.000169051
0.0023955 8.67237e-05 0.000173295
0.00300583 8.6878e-05 0.000173213
0.00361564 8.63749e-05 0.000172347
0.00422518 8.59361e-05 0.000171649
0.00483459 8.5678e-05 0.000171253
0.00544397 8.55595e-05 0.000171075
0.00605333 8.55304e-05 0.000171033
0.0066627 8.55713e-05 0.000171095
0.00727208 8.56967e-05 0.000171286
0.00788151 8.59384e-05 0.000171665
0.00849107 8.62873e-05 0.000172239
0.00910088 8.65066e-05 0.000172718
0.00971116 8.5697e-05 0.000171755
0.0103225 8.09345e-05 0.00016577
0.0109351 6.80002e-05 0.000142474
0.0115341 4.94281e-05 9.44151e-05
0.012 3.86385e-05 6.3243e-05
0 0 0
0.000559397 5.33377e-18 9.63666e-05
0.00116748 9.19294e-18 0.000152983
0.00177964 1.05356e-17 0.00016974
0.00239275 9.24011e-18 0.000173647
0.0030045 6.04251e-18 0.000173357
0.0036151 1.73989e-18 0.000172392
0.004225 -2.49091e-18 0.000171658
0.00483455 -6.0657e-18 0.000171251
0.00544397 -7.79746e-18 0.000171071
0.00605334 -5.41145e-18 0.000171028
0.00666271 8.36491e-20 0.000171091
0.00727215 6.45756e-18 0.000171286
0.00788174 9.92618e-18 0.00017168
0.00849167 8.96919e-18 0.000172299
0.00910222 3.5448e-18 0.000172882
0.00971367 -4.06597e-18 0.000172106
0.0103255 -9.25488e-18 0.000166265
0.0109371 -1.18528e-17 0.000142569
0.0115345 -1.00989e-17 9.32527e-05
0.012 -1.65713e-18 6.10788e-05
0 0 0
0.000561593 -4.18217e-05 9.56051e-05
0.00117166 -7.08904e-05 0.000152049
0.00178431 -8.36158e-05 0.000169051
0.0023955 -8.67237e-05 0.000173295
0.00300583 -8.6878e-05 0.000173213
0.00361564 -8.63749e-05 0.000172347
0.00422518 -8.59361e-05 0.000171649
0.00483459 -8.5678e-05 0.000171253
0.00544397 -8.55595e-05 0.000171075
0.00605333 -8.55304e-05 0.000171033
0.0066627 -8.55713e-05 0.000171095
0.00727208 -8.56967e-05 0.000171286
0.00788151 -8.59384e-05 0.000171665
0.00849107 -8.62873e-05 0.000172239
0.00910088 -8.65066e-05 0.000172718
0.00971116 -8.5697e-05 0.000171755
0.0103225 -8.09345e-05 0.00016577
0.0109351 -6.80002e-05 0.000142474
0.0115341 -4.94281e-05 9.44151e-05
0.012 -3.86385e-05 6.3243e-05
0 0 0
0.000569422 -9.4085e-05 9.4085e-05
0.00118981 -0.000149989 0.000149989
0.0017967 -0.000167715 0.000167715
0.00240207 -0.000172654 0.000172654
0.00300873 -0.000172972 0.000172972
0.00361671 -0.000172277 0.000172277
0.00422548 -0.000171641 0.000171641
0.00483464 -0.000171261 0.000171261
0.00544396 -0.000171085 0.000171085
0.00605333 -0.000171042 0.000171042
0.00666269 -0.000171102 0.000171102
0.00727198 -0.000171288 0.000171288
0.0078811 -0.000171643 0.000171643
0.00848983 -0.000172142 0.000172142
0.00909785 -0.000172429 0.000172429
0.00970492 -0.000171085 0.000171085
0.0103119 -0.000164629 0.000164629
0.0109254 -0.00014188 0.00014188
0.0115301 -9.6967e-05 9.6967e-05
0.012 -6.87093e-05 6.87093e-05
0 0 0
0.000624758 -0.000181409 9.44999e-05
0.00121943 -0.000231895 0.000150326
0.00180996 -0.00025167 0.000167891
0.00240728 -0.000257262 0.000172788
0.00301037 -0.000258107 0.000173031
0.00361701 -0.000257645 0.000172303
0.0042254 -0.000257102 0.000171649
0.00483452 -0.000256752 0.000171263
0.00544389 -0.000256582 0.000171085
0.00605333 -0.000256539 0.000171041
0.00666275 -0.000256597 0.000171102
0.00727207 -0.000256772 0.000171291
0.00788107 -0.00025709 0.000171653
0.00848929 -0.000257491 0.000172168
0.00909579 -0.000257534 0.000172488
0.00969916 -0.000255832 0.000171177
0.0102981 -0.000248363 0.000164688
0.0108948 -0.000228027 0.000141922
0.0114977 -0.000145626 9.71213e-05
0.012 -8.2821e-05 6.92373e-05
0 0 0
0.000617269 0.000185201 4.26385e-05
0.00120119 0.000235447 7.17491e-05
0.00179723 0.000254069 8.42031e-05
0.00240035 0.00025835 8.70291e-05
0.00300727 0.000258533 8.70131e-05
0.00361585 0.00025777 8.64225e-05
0.00422506 0.00025712 8.59483e-05
0.00483447 0.00025674 8.5678e-05
0.0054439 0.000256566 8.55565e-05
0.00605334 0.000256524 8.55273e-05
0.00666276 0.000256585 8.55695e-05
0.00727218 0.00025677 8.56996e-05
0.00788153 0.000257131 8.59563e-05
0.00849063 0.00025766 8.63441e-05
0.009099 0.000258017 8.66463e-05
0.0097056 0.000256978 8.59712e-05
0.0103085 0.000250339 8.13372e-05
0.0109035 0.000229823 6.81896e-05
0.0115005 0.000141693 4.88074e-05
0.012 7.25938e-05 3.74792e-05
0 0 0
0.000561593 9.56051e-05 4.18217e-05
0.00117166 0.000152049 7.08904e-05
0.00178431 0.000169051 8.36158e-05
0.0023955 0.000173295 8.67237e-05
0.00300583 0.000173213 8.6878e-05
0.00361564 0.000172347 8.63749e-05
0.00422518 0.000171649 8.59361e-05
0.00483459 0.000171253 8.5678e-05
0.00544397 0.000171075 8.55595e-05
0.00605333 0.000171033 8.55304e-05
0.0066627 0.000171095 8.55713e-05
0.00727208 0.000171286 8.56967e-05
0.00788151 0.000171665 8.59384e-05
0.00849107 0.000172239 8.62873e-05
0.00910088 0.000172718 8.65066e-05
0.00971116 0.000171755 8.5697e-05
0.0103225 0.00016577 8.09345e-05
0.0109351 0.000142474 6.80002e-05
0.0115341 9.44151e-05 4.94281e-05
0.012 6.3243e-05 3.86385e-05
0 0 0
0.000554085 4.24173e-05 4.24173e-05
0.00115333 7.161e-05 7.161e-05
0.00177178 8.41547e-05 8.41547e-05
0.00238891 8.6994e-05 8.6994e-05
0.00300297 8.69821e-05 8.69821e-05
0.0036146 8.64041e-05 8.64041e-05
0.00422489 8.59393e-05 8.59393e-05
0.00483456 8.56744e-05 8.56744e-05
0.00544399 8.55553e-05 8.55553e-05
0.00605334 8.55266e-05 8.55266e-05
0.00666271 8.5568e-05 8.5568e-05
0.00727217 8.56956e-05 8.56956e-05
0.00788191 8.59477e-05 8.59477e-05
0.00849229 8.63301e-05 8.63301e-05
0.00910394 8.66342e-05 8.66342e-05
0.00971754 8.59845e-05 8.59845e-05
0.0103333 8.1334e-05 8.1334e-05
0.0109447 6.80623e-05 6.80623e-05
0.0115372 4.84195e-05 4.84195e-05
0.012 3.66171e-05 3.66171e-05
0 0 0
0.000551985 3.73871e-18 4.27218e-05
0.00114916 6.28408e-18 7.202e-05
0.00176703 6.72623e-18 8.44613e-05
0.00238613 5.57051e-18 8.71591e-05
0.00300163 3.92591e-18 8.70498e-05
0.00361407 1.78743e-18 8.64256e-05
0.00422472 -1.5917e-18 8.59431e-05
0.00483452 -5.11618e-18 8.56731e-05
0.00544399 -7.79306e-18 8.55531e-05
0.00605334 -6.30886e-18 8.55245e-05
0.00666272 -1.19389e-18 8.55663e-05
0.00727223 5.6868e-18 8.56959e-05
0.00788213 9.33823e-18 8.59552e-05
0.00849289 8.08195e-18 8.63588e-05
0.00910529 1.79307e-18 8.67131e-05
0.00972012 -5.35509e-18 8.61454e-05
0.0103364 -9.06701e-18 8.15371e-05
0.0109465 -9.35606e-18 6.80582e-05
0.0115373 -3.71341e-18 4.78861e-05
0.012 1.38714e-18 3.56444e-05
0 0 0
0.000554085 -4.24173e-05 4.24173e-05
0.00115333 -7.161e-05 7.161e-05
0.00177178 -8.41547e-05 8.41547e-05
0.00238891 -8.6994e-05 8.6994e-05
0.00300297 -8.69821e-05 8.69821e-05
0.0036146 -8.64041e-05 8.64041e-05
0.00422489 -8.59393e-05 8.59393e-05
0.00483456 -8.56744e-05 8.56744e-05
0.00544399 -8.55553e-05 8.55553e-05
0.00605334 -8.55266e-05 8.55266e-05
0.00666271 -8.5568e-05 8.5568e-05
0.00727217 -8.56956e-05 8.56956e-05
0.00788191 -8.59477e-05 8.59477e-05
0.00849229 -8.63301e-05 8.63301e-05
0.00910394 -8.66342e-05 8.66342e-05
0.00971754 -8.59845e-05 8.59845e-05
0.0103333 -8.1334e-05 8.1334e-05
0.0109447 -6.80623e-05 6.80623e-05
0.0115372 -4.84195e-05 4.84195e-05
0.012 -3.66171e-05 3.66171e-05
0 0 0
0.000561593 -9.56051e-05 4.18217e-05
0.00117166 -0.000152049 7.08904e-05
0.00178431 -0.000169051 8.36158e-05
0.0023955 -0.000173295 8.67237e-05
0.00300583 -0.000173213 8.6878e-05
0.00361564 -0.000172347 8.63749e-05
0.00422518 -0.000171649 8.59361e-05
0.00483459 -0.000171253 8.5678e-05
0.00544397 -0.000171075 8.55595e-05
0.00605333 -0.000171033 8.55304e-05
0.0066627 -0.000171095 8.55713e-05
0.00727208 -0.000171286 8.56967e-05
0.00788151 -0.000171665 8.59384e-05
0.00849107 -0.000172239 8.62873e-05
0.00910088 -0.000172718 8.65066e-05
0.00971116 -0.000171755 8.5697e-05
0.0103225 -0.00016577 8.09345e-05
0.0109351 -0.000142474 6.80002e-05
0.0115341 -9.44151e-05 4.94281e-05
0.012 -6.3243e-05 3.86385e-05
0 0 0
0.000617269 -0.000185201 4.26385e-05
0.00120119 -0.000235447 7.17491e-05
0.00179723 -0.000254069 8.42031e-05
0.00240035 -0.00025835 8.70291e-05
0.00300727 -0.000258533 8.70131e-05
0.00361585 -0.00025777 8.64225e-05
0.00422506 -0.00025712 8.59483e-05
0.00483447 -0.00025674 8.5678e-05
0.0054439 -0.000256566 8.55565e-05
0.00605334 -0.000256524 8.55273e-05
0.00666276 -0.000256585 8.55695e-05
0.00727218 -0.00025677 8.56996e-05
0.00788153 -0.000257131 8.59563e-05
0.00849063 -0.00025766 8.63441e-05
0.009099 -0.000258017 8.66463e-05
0.0097056 -0.000256978 8.59712e-05
0.0103085 -0.000250339 8.13372e-05
0.0109035 -0.000229823 6.81896e-05
0.0115005 -0.000141693 4.88074e-05
0.012 -7.25938e-05 3.74792e-05
0 0 0
0.000615316 0.000186292 -1.321e-18
0.00119699 0.000237051 -2.24891e-18
0.00179237 0.000255076 -2.60132e-18
0.00239745 0.000258896 -2.87524e-18
0.00300584 0.000258751 -2.11713e-18
0.00361526 0.000257842 -1.16648e-18
0.00422487 0.000257135 -3.2665e-19
0.00483442 0.000256737 3.86908e-19
0.0054439 0.00025656 3.77395e-19
0.00605334 0.000256518 7.72072e-19
0.00666278 0.00025658 1.60196e-19
0.00727225 0.000256772 -7.13554e-19
0.00788177 0.000257156 -3.53392e-19
0.00849127 0.000257751 -1.12371e-18
0.00910041 0.000258265 2.96808e-19
0.00970819 0.000257492 1.77714e-18
0.0103115 0.000251145 2.74984e-18
0.0109049 0.000230112 3.29183e-18
0.0115004 0.000140004 3.28918e-18
0.012 6.92544e-05 2.04104e-18
0 0 0
0.000559397 9.63666e-05 -7.02687e-18
0.00116748 0.000152983 -1.27301e-17
0.00177964 0.00016974 -1.53766e-17
0.00239275 0.000173647 -1.45589e-17
0.0030045 0.000173357 -1.07376e-17
0.0036151 0.000172392 -5.5326e-18
0.004225 0.000171658 -5.08859e-19
0.00483455 0.000171251 2.93763e-18
0.00544397 0.000171071 3.5968e-18
0.00605334 0.000171028 1.6251e-18
0.00666271 0.000171091 -2.56982e-18
0.00727215 0.000171286 -6.91897e-18
0.00788174 0.00017168 -9.15883e-18
0.00849167 0.000172299 -8.50731e-18
0.00910222 0.000172882 -3.96115e-18
0.00971367 0.000172106 2.90439e-18
0.0103255 0.000166265 9.81915e-18
0.0109371 0.000142569 1.47154e-17
0.0115345 9.32527e-05 1.71834e-17
0.012 6.10788e-05 6.29654e-18
0 0 0
0.000551985 4.27218e-05 -5.70884e-18
0.00114916 7.202e-05 -1.02474e-17
0.00176703 8.44613e-05 -1.22804e-17
0.00238613 8.71591e-05 -1.14914e-17
0.00300163 8.70498e-05 -8.68449e-18
0.00361407 8.64256e-05 -5.02094e-18
0.00422472 8.59431e-05 -1.17633e-18
0.00483452 8.56731e-05 1.60302e-18
0.00544399 8.55531e-05 2.40064e-18
0.00605334 8.55245e-05 1.20852e-18
0.00666272 8.55663e-05 -2.08126e-18
0.00727223 8.56959e-05 -5.63971e-18
0.00788213 8.59552e-05 -7.03191e-18
0.00849289 8.63588e-05 -6.63336e-18
0.00910529 8.67131e-05 -2.65442e-18
0.00972012 8.61454e-05 3.1732e-18
0.0103364 8.15371e-05 8.03416e-18
0.0109465 6.80582e-05 1.18103e-17
0.0115373 4.78861e-05 1.30723e-17
0.012 3.56444e-05 4.84521e-18
0 0 0
0.000549906 1.36889e-19 -2.83806e-20
0.00114497 -3.37807e-19 -7.5809e-21
0.00176225 -1.11439e-18 3.54536e-19
0.00238333 -8.97598e-19 7.81679e-19
0.00300029 3.9061e-19 5.35531e-19
0.00361353 2.16669e-18 2.81829e-19
0.00422454 2.1381e-18 1.85312e-19
0.00483448 -2.50722e-21 4.60121e-19
0.00544398 -3.12285e-18 1.158e-18
0.00605335 -3.81832e-18 1.83244e-18
0.00666273 -1.47334e-18 1.42404e-18
0.0072723 2.40518e-18 1.02856e-18
0.00788235 4.89364e-18 9.71258e-19
0.00849349 3.09832e-18 8.02972e-19
0.00910665 -1.36128e-18 1.60994e-18
0.00972273 -5.14962e-18 2.61567e-18
0.0103395 -4.64775e-18 2.20088e-18
0.0109482 -9.89632e-19 1.66546e-18
0.0115373 7.9334e-18 3.6026e-20
0.012 5.96489e-18 4.64211e-20
0 0 0
0.000551985 -4.27218e-05 5.47016e-18
0.00114916 -7.202e-05 1.02925e-17
0.00176703 -8.44613e-05 1.30821e-17
0.00238613 -8.71591e-05 1.28638e-17
0.00300163 -8.70498e-05 9.94318e-18
0.00361407 -8.64256e-05 5.38433e-18
0.00422472 -8.59431e-05 1.54248e-18
0.00483452 -8.56731e-05 -7.17096e-19
0.00544399 -8.55531e-05 -3.20984e-19
0.00605334 -8.55245e-05 2.18959e-18
0.00666272 -8.55663e-05 5.05207e-18
0.00727223 -8.56959e-05 7.42897e-18
0.00788213 -8.59552e-05 9.08425e-18
0.00849289 -8.63588e-05 8.1314e-18
0.00910529 -8.67131e-05 5.97669e-18
0.00972012 -8.61454e-05 1.75062e-18
0.0103364 -8.15371e-05 -3.78199e-18
0.0109465 -6.80582e-05 -8.89462e-18
0.0115373 -4.78861e-05 -1.2915e-17
0.012 -3.56444e-05 -3.928e-18
0 0 0
0.000559397 -9.63666e-05 6.84328e-18
0.00116748 -0.000152983 1.29225e-17
0.00177964 -0.00016974 1.60603e-17
0.00239275 -0.000173647 1.54645e-17
0.0030045 -0.000173357 1.14697e-17
0.0036151 -0.000172392 6.08346e-18
0.004225 -0.000171658 1.14156e-18
0.00483455 -0.000171251 -1.70972e-18
0.00544397 -0.000171071 -1.48124e-18
0.00605334 -0.000171028 1.40842e-18
0.00666271 -0.000171091 5.31121e-18
0.00727215 -0.000171286 8.91873e-18
0.00788174 -0.00017168 1.14865e-17
0.00849167 -0.000172299 1.01788e-17
0.00910222 -0.000172882 6.96122e-18
0.00971367 -0.000172106 1.36161e-18
0.0103255 -0.000166265 -5.78337e-18
0.0109371 -0.000142569 -1.17862e-17
0.0115345 -9.32527e-05 -1.61926e-17
0.012 -6.10788e-05 -5.31441e-18
0 0 0
0.000615316 -0.000186292 1.18096e-18
0.00119699 -0.000237051 2.59859e-18
0.00179237 -0.000255076 3.41105e-18
0.00239745 -0.000258896 3.38789e-18
0.00300584 -0.000258751 2.71128e-18
0.00361526 -0.000257842 1.53449e-18
0.00422487 -0.000257135 1.41501e-18
0.00483442 -0.000256737 7.70778e-19
0.0054439 -0.00025656 1.10908e-18
0.00605334 -0.000256518 1.53789e-18
0.00666278 -0.00025658 2.38104e-18
0.00727225 -0.000256772 2.61381e-18
0.00788177 -0.000257156 3.64588e-18
0.00849127 -0.000257751 2.86865e-18
0.00910041 -0.000258265 2.47123e-18
0.00970819 -0.000257492 1.86339e-18
0.0103115 -0.000251145 6.19533e-19
0.0109049 -0.000230112 -7.54787e-19
0.0115004 -0.000140004 -1.74078e-18
0.012 -6.92544e-05 -4.6793e-19
0 0 0
0.000617269 0.000185201 -4.26385e-05
0.00120119 0.000235447 -7.17491e-05
0.00179723 0.000254069 -8.42031e-05
0.00240035 0.00025835 -8.70291e-05