<?xml version="1.0"?>
<VTKFile type="UnstructuredGrid" version="0.1" byte_order="LittleEndian">
<UnstructuredGrid>
<Piece NumberOfPoints="1029" NumberOfCells="720">
<Points>
<DataArray type="Float32" NumberOfComponents="3" format="ascii">
0 0 0
0.005 0 0
0.01 0 0
0.015 0 0
0.02 0 0
0.025 0 0
0.03 0 0
0.035 0 0
0.04 0 0
0.045 0 0
0.05 0 0
0.055 0 0
0.06 0 0
0.065 0 0
0.07 0 0
0.075 0 0
0.08 0 0
0.085 0 0
0.09 0 0
0.095 0 0
0.1 0 0
0 0.005 0
0.005 0.005 0
0.01 0.005 0
0.015 0.005 0
0.02 0.005 0
0.025 0.005 0
0.03 0.005 0
0.035 0.005 0
0.04 0.005 0
0.045 0.005 0
0.05 0.005 0
0.055 0.005 0
0.06 0.005 0
0.065 0.005 0
0.07 0.005 0
0.075 0.005 0
0.08 0.005 0
0.085 0.005 0
0.09 0.005 0
0.095 0.005 0
0.1 0.005 0
0 0.01 0
0.005 0.01 0
0.01 0.01 0
0.015 0.01 0
0.02 0.01 0
0.025 0.01 0
0.03 0.01 0
0.035 0.01 0
0.04 0.01 0
0.045 0.01 0
0.05 0.01 0
0.055 0.01 0
0.06 0.01 0
0.065 0.01 0
0.07 0.01 0
0.075 0.01 0
0.08 0.01 0
0.085 0.01 0
0.09 0.01 0
0.095 0.01 0
0.1 0.01 0
0 0.015 0
0.005 0.015 0
0.01 0.015 0
0.015 0.015 0
0.02 0.015 0
0.025 0.015 0
0.03 0.015 0
0.035 0.015 0
0.04 0.015 0
0.045 0.015 0
0.05 0.015 0
0.055 0.015 0
0.06 0.015 0
0.065 0.015 0
0.07 0.015 0
0.075 0.015 0
0.08 0.015 0
0.085 0.015 0
0.09 0.015 0
0.095 0.015 0
0.1 0.015 0
0 0.02 0
0.005 0.02 0
0.01 0.02 0
0.015 0.02 0
0.02 0.02 0
0.025 0.02 0
0.03 0.02 0
0.035 0.02 0
0.04 0.02 0
0.045 0.02 0
0.05 0.02 0
0.055 0.02 0
0.06 0.02 0
0.065 0.02 0
0.07 0.02 0
0.075 0.02 0
0.08 0.02 0
0.085 0.02 0
0.09 0.02 0
0.095 0.02 0
0.1 0.02 0
0 0.025 0
0.005 0.025 0
0.01 0.025 0
0.015 0.025 0
0.02 0.025 0
0.025 0.025 0
0.03 0.025 0
0.035 0.025 0
0.04 0.025 0
0.045 0.025 0
0.05 0.025 0
0.055 0.025 0
0.06 0.025 0
0.065 0.025 0
0.07 0.025 0
0.075 0.025 0
0.08 0.025 0
0.085 0.025 0
0.09 0.025 0
0.095 0.025 0
0.1 0.025 0
0 0.03 0
0.005 0.03 0
0.01 0.03 0
0.015 0.03 0
0.02 0.03 0
0.025 0.03 0
0.03 0.03 0
0.035 0.03 0
0.04 0.03 0
0.045 0.03 0
0.05 0.03 0
0.055 0.03 0
0.06 0.03 0
0.065 0.03 0
0.07 0.03 0
0.075 0.03 0
0.08 0.03 0
0.085 0.03 0
0.09 0.03 0
0.095 0.03 0
0.1 0.03 0
0 0 0.005
0.005 0 0.005
0.01 0 0.005
0.015 0 0.005
0.02 0 0.005
0.025 0 0.005
0.03 0 0.005
0.035 0 0.005
0.04 0 0.005
0.045 0 0.005
0.05 0 0.005
0.055 0 0.005
0.06 0 0.005
0.065 0 0.005
0.07 0 0.005
0.075 0 0.005
0.08 0 0.005
0.085 0 0.005
0.09 0 0.005
0.095 0 0.005
0.1 0 0.005
0 0.005 0.005
0.005 0.005 0.005
0.01 0.005 0.005
0.015 0.005 0.005
0.02 0.005 0.005
0.025 0.005 0.005
0.03 0.005 0.005
0.035 0.005 0.005
0.04 0.005 0.005
0.045 0.005 0.005
0.05 0.005 0.005
0.055 0.005 0.005
0.06 0.005 0.005
0.065 0.005 0.005
0.07 0.005 0.005
0.075 0.005 0.005
0.08 0.005 0.005
0.085 0.005 0.005
0.09 0.005 0.005
0.095 0.005 0.005
0.1 0.005 0.005
0 0.01 0.005
0.005 0.01 0.005
0.01 0.01 0.005
0.015 0.01 0.005
0.02 0.01 0.005
0.025 0.01 0.005
0.03 0.01 0.005
0.035 0.01 0.005
0.04 0.01 0.005
0.045 0.01 0.005
0.05 0.01 0.005
0.055 0.01 0.005
0.06 0.01 0.005
0.065 0.01 0.005
0.07 0.01 0.005
0.075 0.01 0.005
0.08 0.01 0.005
0.085 0.01 0.005
0.09 0.01 0.005
0.095 0.01 0.005
0.1 0.01 0.005
0 0.015 0.005
0.005 0.015 0.005
0.01 0.015 0.005
0.015 0.015 0.005
0.02 0.015 0.005
0.025 0.015 0.005
0.03 0.015 0.005
0.035 0.015 0.005
0.04 0.015 0.005
0.045 0.015 0.005
0.05 0.015 0.005
0.055 0.015 0.005
0.06 0.015 0.005
0.065 0.015 0.005
0.07 0.015 0.005
0.075 0.015 0.005
0.08 0.015 0.005
0.085 0.015 0.005
0.09 0.015 0.005
0.095 0.015 0.005
0.1 0.015 0.005
0 0.02 0.005
0.005 0.02 0.005
0.01 0.02 0.005
0.015 0.02 0.005
0.02 0.02 0.005
0.025 0.02 0.005
0.03 0.02 0.005
0.035 0.02 0.005
0.04 0.02 0.005
0.045 0.02 0.005
0.05 0.02 0.005
0.055 0.02 0.005
0.06 0.02 0.005
0.065 0.02 0.005
0.07 0.02 0.005
0.075 0.02 0.005
0.08 0.02 0.005
0.085 0.02 0.005
0.09 0.02 0.005
0.095 0.02 0.005
0.1 0.02 0.005
0 0.025 0.005
0.005 0.025 0.005
0.01 0.025 0.005
0.015 0.025 0.005
0.02 0.025 0.005
0.025 0.025 0.005
0.03 0.025 0.005
0.035 0.025 0.005
0.04 0.025 0.005
0.045 0.025 0.005
0.05 0.025 0.005
0.055 0.025 0.005
0.06 0.025 0.005
0.065 0.025 0.005
0.07 0.025 0.005
0.075 0.025 0.005
0.08 0.025 0.005
0.085 0.025 0.005
0.09 0.025 0.005
0.095 0.025 0.005
0.1 0.025 0.005
0 0.03 0.005
0.005 0.03 0.005
0.01 0.03 0.005
0.015 0.03 0.005
0.02 0.03 0.005
0.025 0.03 0.005
0.03 0.03 0.005
0.035 0.03 0.005
0.04 0.03 0.005
0.045 0.03 0.005
0.05 0.03 0.005
0.055 0.03 0.005
0.06 0.03 0.005
0.065 0.03 0.005
0.07 0.03 0.005
0.075 0.03 0.005
0.08 0.03 0.005
0.085 0.03 0.005
0.09 0.03 0.005
0.095 0.03 0.005
0.1 0.03 0.005
0 0 0.01
0.005 0 0.01
0.01 0 0.01
0.015 0 0.01
0.02 0 0.01
0.025 0 0.01
0.03 0 0.01
0.035 0 0.01
0.04 0 0.01
0.045 0 0.01
0.05 0 0.01
0.055 0 0.01
0.06 0 0.01
0.065 0 0.01
0.07 0 0.01
0.075 0 0.01
0.08 0 0.01
0.085 0 0.01
0.09 0 0.01
0.095 0 0.01
0.1 0 0.01
0 0.005 0.01
0.005 0.005 0.01
0.01 0.005 0.01
0.015 0.005 0.01
0.02 0.005 0.01
0.025 0.005 0.01
0.03 0.005 0.01
0.035 0.005 0.01
0.04 0.005 0.01
0.045 0.005 0.01
0.05 0.005 0.01
0.055 0.005 0.01
0.06 0.005 0.01
0.065 0.005 0.01
0.07 0.005 0.01
0.075 0.005 0.01
0.08 0.005 0.01
0.085 0.005 0.01
0.09 0.005 0.01
0.095 0.005 0.01
0.1 0.005 0.01
0 0.01 0.01
0.005 0.01 0.01
0.01 0.01 0.01
0.015 0.01 0.01
0.02 0.01 0.01
0.025 0.01 0.01
0.03 0.01 0.01
0.035 0.01 0.01
0.04 0.01 0.01
0.045 0.01 0.01
0.05 0.01 0.01
0.055 0.01 0.01
0.06 0.01 0.01
0.065 0.01 0.01
0.07 0.01 0.01
0.075 0.01 0.01
0.08 0.01 0.01
0.085 0.01 0.01
0.09 0.01 0.01
0.095 0.01 0.01
0.1 0.01 0.01
0 0.015 0.01
0.005 0.015 0.01
0.01 0.015 0.01
0.015 0.015 0.01
0.02 0.015 0.01
0.025 0.015 0.01
0.03 0.015 0.01
0.035 0.015 0.01
0.04 0.015 0.01
0.045 0.015 0.01
0.05 0.015 0.01
0.055 0.015 0.01
0.06 0.015 0.01
0.065 0.015 0.01
0.07 0.015 0.01
0.075 0.015 0.01
0.08 0.015 0.01
0.085 0.015 0.01
0.09 0.015 0.01
0.095 0.015 0.01
0.1 0.015 0.01
0 0.02 0.01
0.005 0.02 0.01
0.01 0.02 0.01
0.015 0.02 0.01
0.02 0.02 0.01
0.025 0.02 0.01
0.03 0.02 0.01
0.035 0.02 0.01
0.04 0.02 0.01
0.045 0.02 0.01
0.05 0.02 0.01
0.055 0.02 0.01
0.06 0.02 0.01
0.065 0.02 0.01
0.07 0.02 0.01
0.075 0.02 0.01
0.08 0.02 0.01
0.085 0.02 0.01
0.09 0.02 0.01
0.095 0.02 0.01
0.1 0.02 0.01
0 0.025 0.01
0.005 0.025 0.01
0.01 0.025 0.01
0.015 0.025 0.01
0.02 0.025 0.01
0.025 0.025 0.01
0.03 0.025 0.01
0.035 0.025 0.01
0.04 0.025 0.01
0.045 0.025 0.01
0.05 0.025 0.01
0.055 0.025 0.01
0.06 0.025 0.01
0.065 0.025 0.01
0.07 0.025 0.01
0.075 0.025 0.01
0.08 0.025 0.01
0.085 0.025 0.01
0.09 0.025 0.01
0.095 0.025 0.01
0.1 0.025 0.01
0 0.03 0.01
0.005 0.03 0.01
0.01 0.03 0.01
0.015 0.03 0.01
0.02 0.03 0.01
0.025 0.03 0.01
0.03 0.03 0.01
0.035 0.03 0.01
0.04 0.03 0.01
0.045 0.03 0.01
0.05 0.03 0.01
0.055 0.03 0.01
0.06 0.03 0.01
0.065 0.03 0.01
0.07 0.03 0.01
0.075 0.03 0.01
0.08 0.03 0.01
0.085 0.03 0.01
0.09 0.03 0.01
0.095 0.03 0.01
0.1 0.03 0.01
0 0 0.015
0.005 0 0.015
0.01 0 0.015
0.015 0 0.015
0.02 0 0.015
0.025 0 0.015
0.03 0 0.015
0.035 0 0.015
0.04 0 0.015
0.045 0 0.015
0.05 0 0.015
0.055 0 0.015
0.06 0 0.015
0.065 0 0.015
0.07 0 0.015
0.075 0 0.015
0.08 0 0.015
0.085 0 0.015
0.09 0 0.015
0.095 0 0.015
0.1 0 0.015
0 0.005 0.015
0.005 0.005 0.015
0.01 0.005 0.015
0.015 0.005 0.015
0.02 0.005 0.015
0.025 0.005 0.015
0.03 0.005 0.015
0.035 0.005 0.015
0.04 0.005 0.015
0.045 0.005 0.015
0.05 0.005 0.015
0.055 0.005 0.015
0.06 0.005 0.015
0.065 0.005 0.015
0.07 0.005 0.015
0.075 0.005 0.015
0.08 0.005 0.015
0.085 0.005 0.015
0.09 0.005 0.015
0.095 0.005 0.015
0.1 0.005 0.015
0 0.01 0.015
0.005 0.01 0.015
0.01 0.01 0.015
0.015 0.01 0.015
0.02 0.01 0.015
0.025 0.01 0.015
0.03 0.01 0.015
0.035 0.01 0.015
0.04 0.01 0.015
0.045 0.01 0.015
0.05 0.01 0.015
0.055 0.01 0.015
0.06 0.01 0.015
0.065 0.01 0.015
0.07 0.01 0.015
0.075 0.01 0.015
0.08 0.01 0.015
0.085 0.01 0.015
0.09 0.01 0.015
0.095 0.01 0.015
0.1 0.01 0.015
0 0.015 0.015
0.005 0.015 0.015
0.01 0.015 0.015
0.015 0.015 0.015
0.02 0.015 0.015
0.025 0.015 0.015
0.03 0.015 0.015
0.035 0.015 0.015
0.04 0.015 0.015
0.045 0.015 0.015
0.05 0.015 0.015
0.055 0.015 0.015
0.06 0.015 0.015
0.065 0.015 0.015
0.07 0.015 0.015
0.075 0.015 0.015
0.08 0.015 0.015
0.085 0.015 0.015
0.09 0.015 0.015
0.095 0.015 0.015
0.1 0.015 0.015
0 0.02 0.015
0.005 0.02 0.015
0.01 0.02 0.015
0.015 0.02 0.015
0.02 0.02 0.015
0.025 0.02 0.015
0.03 0.02 0.015
0.035 0.02 0.015
0.04 0.02 0.015
0.045 0.02 0.015
0.05 0.02 0.015
0.055 0.02 0.015
0.06 0.02 0.015
0.065 0.02 0.015
0.07 0.02 0.015
0.075 0.02 0.015
0.08 0.02 0.015
0.085 0.02 0.015
0.09 0.02 0.015
0.095 0.02 0.015
0.1 0.02 0.015
0 0.025 0.015
0.005 0.025 0.015
0.01 0.025 0.015
0.015 0.025 0.015
0.02 0.025 0.015
0.025 0.025 0.015
0.03 0.025 0.015
0.035 0.025 0.015
0.04 0.025 0.015
0.045 0.025 0.015
0.05 0.025 0.015
0.055 0.025 0.015
0.06 0.025 0.015
0.065 0.025 0.015
0.07 0.025 0.015
0.075 0.025 0.015
0.08 0.025 0.015
0.085 0.025 0.015
0.09 0.025 0.015
0.095 0.025 0.015
0.1 0.025 0.015
0 0.03 0.015
0.005 0.03 0.015
0.01 0.03 0.015
0.015 0.03 0.015
0.02 0.03 0.015
0.025 0.03 0.015
0.03 0.03 0.015
0.035 0.03 0.015
0.04 0.03 0.015
0.045 0.03 0.015
0.05 0.03 0.015
0.055 0.03 0.015
0.06 0.03 0.015
0.065 0.03 0.015
0.07 0.03 0.015
0.075 0.03 0.015
0.08 0.03 0.015
0.085 0.03 0.015
0.09 0.03 0.015
0.095 0.03 0.015
0.1 0.03 0.015
0 0 0.02
0.005 0 0.02
0.01 0 0.02
0.015 0 0.02
0.02 0 0.02
0.025 0 0.02
0.03 0 0.02
0.035 0 0.02
0.04 0 0.02
0.045 0 0.02
0.05 0 0.02
0.055 0 0.02
0.06 0 0.02
0.065 0 0.02
0.07 0 0.02
0.075 0 0.02
0.08 0 0.02
0.085 0 0.02
0.09 0 0.02
0.095 0 0.02
0.1 0 0.02
0 0.005 0.02
0.005 0.005 0.02
0.01 0.005 0.02
0.015 0.005 0.02
0.02 0.005 0.02
0.025 0.005 0.02
0.03 0.005 0.02
0.035 0.005 0.02
0.04 0.005 0.02
0.045 0.005 0.02
0.05 0.005 0.02
0.055 0.005 0.02
0.06 0.005 0.02
0.065 0.005 0.02
0.07 0.005 0.02
0.075 0.005 0.02
0.08 0.005 0.02
0.085 0.005 0.02
0.09 0.005 0.02
0.095 0.005 0.02
0.1 0.005 0.02
0 0.01 0.02
0.005 0.01 0.02
0.01 0.01 0.02
0.015 0.01 0.02
0.02 0.01 0.02
0.025 0.01 0.02
0.03 0.01 0.02
0.035 0.01 0.02
0.04 0.01 0.02
0.045 0.01 0.02
0.05 0.01 0.02
0.055 0.01 0.02
0.06 0.01 0.02
0.065 0.01 0.02
0.07 0.01 0.02
0.075 0.01 0.02
0.08 0.01 0.02
0.085 0.01 0.02
0.09 0.01 0.02
0.095 0.01 0.02
[...]
<PointData Vectors="Displacement">
<DataArray type="Float32" Name="Displacement" NumberOfComponents="3" format="ascii">
0 0 0
6.58839e-05 1.43168e-05 1.43168e-05
0.000121197 1.91126e-05 1.91126e-05
0.00017628 2.12398e-05 2.12398e-05
0.000232394 2.19085e-05 2.19085e-05
0.000289437 2.20326e-05 2.20326e-05
0.000347076 2.1978e-05 2.1978e-05
0.000405043 2.19001e-05 2.19001e-05
0.000463174 2.18501e-05 2.18501e-05
0.000521393 2.18485e-05 2.18485e-05
0.000579662 2.19226e-05 2.19226e-05
0.000637911 2.21245e-05 2.21245e-05
0.000695927 2.25287e-05 2.25287e-05
0.000753164 2.31802e-05 2.31802e-05
0.000808445 2.39263e-05 2.39263e-05
0.000859652 2.39912e-05 2.39912e-05
0.000903685 2.12345e-05 2.12345e-05
0.000937352 1.00767e-05 1.00767e-05
0.000961652 -1.88102e-05 -1.88102e-05
0.00101751 -0.000111925 -0.000111925
0.001 -0.000177299 -0.000177299
0 0 0
6.08436e-05 7.31466e-06 1.43115e-05
0.000118162 1.23222e-05 1.92924e-05
0.000174764 1.41693e-05 2.13213e-05
0.000231754 1.4747e-05 2.19497e-05
0.000289219 1.48061e-05 2.20484e-05
0.000347032 1.47226e-05 2.19825e-05
0.000405047 1.46324e-05 2.18998e-05
0.000463169 1.45768e-05 2.18475e-05
0.000521346 1.45703e-05 2.1844e-05
0.000579547 1.4638e-05 2.19156e-05
0.000637716 1.48345e-05 2.21155e-05
0.000695706 1.52463e-05 2.25228e-05
0.000753162 1.59505e-05 2.31952e-05
0.000809365 1.68604e-05 2.40069e-05
0.000863101 1.73349e-05 2.4235e-05
0.000912847 1.5249e-05 2.17963e-05
0.000957755 5.74092e-06 1.1335e-05
0.00100152 -2.39536e-05 -1.71466e-05
0.0010579 -7.71386e-05 -0.000115245
0.001 -0.000108604 -0.00018641
0 0 0
6.02153e-05 3.28302e-06 1.44334e-05
0.000116565 5.78601e-06 1.94768e-05
0.000173523 7.05039e-06 2.14788e-05
0.000231016 7.4204e-06 2.20369e-05
0.000288855 7.45406e-06 2.20885e-05
0.000346878 7.39414e-06 2.19967e-05
0.000404985 7.33244e-06 2.19017e-05
0.000463131 7.29465e-06 2.18434e-05
0.000521298 7.28965e-06 2.18358e-05
0.000579486 7.33376e-06 2.19042e-05
0.000637692 7.46374e-06 2.21052e-05
0.000695882 7.73888e-06 2.25305e-05
0.000753932 8.21511e-06 2.3266e-05
0.000811521 8.8461e-06 2.42415e-05
0.000867962 9.20585e-06 2.48146e-05
0.000921965 7.88802e-06 2.29834e-05
0.000971475 1.11404e-06 1.30842e-05
0.00101291 -1.55767e-05 -1.61685e-05
0.00106233 -3.81096e-05 -0.000119936
0.001 -5.08578e-05 -0.000197278
0 0 0
6.0045e-05 5.27781e-19 1.44691e-05
0.000116224 1.06246e-18 1.95502e-05
0.000173088 1.54684e-18 2.15415e-05
0.000230718 1.97906e-18 2.20782e-05
0.000288691 2.26332e-18 2.21087e-05
0.0003468 2.46301e-18 2.20046e-05
0.000404951 2.54192e-18 2.19033e-05
0.000463111 2.4703e-18 2.18419e-05
0.00052128 2.2858e-18 2.18323e-05
0.000579471 2.05611e-18 2.18997e-05
0.000637709 1.70701e-18 2.21027e-05
0.000696012 1.34366e-18 2.25391e-05
0.000754351 9.82579e-19 2.33089e-05
0.00081255 6.6411e-19 2.43661e-05
0.000870052 3.91584e-19 2.51034e-05
0.000925444 1.5933e-19 2.35011e-05
0.000975194 6.07257e-20 1.37262e-05
0.00101484 -5.81941e-20 -1.61915e-05
0.00106245 -1.85359e-19 -0.000121897
0.001 3.35728e-19 -0.000200841
0 0 0
6.02153e-05 -3.28302e-06 1.44334e-05
0.000116565 -5.78601e-06 1.94768e-05
0.000173523 -7.05039e-06 2.14788e-05
0.000231016 -7.4204e-06 2.20369e-05
0.000288855 -7.45406e-06 2.20885e-05
0.000346878 -7.39414e-06 2.19967e-05
0.000404985 -7.33244e-06 2.19017e-05
0.000463131 -7.29465e-06 2.18434e-05
0.000521298 -7.28965e-06 2.18358e-05
0.000579486 -7.33376e-06 2.19042e-05
0.000637692 -7.46374e-06 2.21052e-05
0.000695882 -7.73888e-06 2.25305e-05
0.000753932 -8.21511e-06 2.3266e-05
0.000811521 -8.8461e-06 2.42415e-05
0.000867962 -9.20585e-06 2.48146e-05
0.000921965 -7.88802e-06 2.29834e-05
0.000971475 -1.11404e-06 1.30842e-05
0.00101291 1.55767e-05 -1.61685e-05
0.00106233 3.81096e-05 -0.000119936
0.001 5.08578e-05 -0.000197278
0 0 0
6.08436e-05 -7.31466e-06 1.43115e-05
0.000118162 -1.23222e-05 1.92924e-05
0.000174764 -1.41693e-05 2.13213e-05
0.000231754 -1.4747e-05 2.19497e-05
0.000289219 -1.48061e-05 2.20484e-05
0.000347032 -1.47226e-05 2.19825e-05
0.000405047 -1.46324e-05 2.18998e-05
0.000463169 -1.45768e-05 2.18475e-05
0.000521346 -1.45703e-05 2.1844e-05
0.000579547 -1.4638e-05 2.19156e-05
0.000637716 -1.48345e-05 2.21155e-05
0.000695706 -1.52463e-05 2.25228e-05
0.000753162 -1.59505e-05 2.31952e-05
0.000809365 -1.68604e-05 2.40069e-05
0.000863101 -1.73349e-05 2.4235e-05
0.000912847 -1.5249e-05 2.17963e-05
0.000957755 -5.74092e-06 1.1335e-05
0.00100152 2.39536e-05 -1.71466e-05
0.0010579 7.71386e-05 -0.000115245
0.001 0.000108604 -0.00018641
0 0 0
6.58839e-05 -1.43168e-05 1.43168e-05
0.000121197 -1.91126e-05 1.91126e-05
0.00017628 -2.12398e-05 2.12398e-05
0.000232394 -2.19085e-05 2.19085e-05
0.000289437 -2.20326e-05 2.20326e-05
0.000347076 -2.1978e-05 2.1978e-05
0.000405043 -2.19001e-05 2.19001e-05
0.000463174 -2.18501e-05 2.18501e-05
0.000521393 -2.18485e-05 2.18485e-05
0.000579662 -2.19226e-05 2.19226e-05
0.000637911 -2.21245e-05 2.21245e-05
0.000695927 -2.25287e-05 2.25287e-05
0.000753164 -2.31802e-05 2.31802e-05
0.000808445 -2.39263e-05 2.39263e-05
0.000859652 -2.39912e-05 2.39912e-05
0.000903685 -2.12345e-05 2.12345e-05
0.000937352 -1.00767e-05 1.00767e-05
0.000961652 1.88102e-05 -1.88102e-05
0.00101751 0.000111925 -0.000111925
0.001 0.000177299 -0.000177299
0 0 0
6.08436e-05 1.43115e-05 7.31466e-06
0.000118162 1.92924e-05 1.23222e-05
0.000174764 2.13213e-05 1.41693e-05
0.000231754 2.19497e-05 1.4747e-05
0.000289219 2.20484e-05 1.48061e-05
0.000347032 2.19825e-05 1.47226e-05
0.000405047 2.18998e-05 1.46324e-05
0.000463169 2.18475e-05 1.45768e-05
0.000521346 2.1844e-05 1.45703e-05
0.000579547 2.19156e-05 1.4638e-05
0.000637716 2.21155e-05 1.48345e-05
0.000695706 2.25228e-05 1.52463e-05
0.000753162 2.31952e-05 1.59505e-05
0.000809365 2.40069e-05 1.68604e-05
0.000863101 2.4235e-05 1.73349e-05
0.000912847 2.17963e-05 1.5249e-05
0.000957755 1.1335e-05 5.74092e-06
0.00100152 -1.71466e-05 -2.39536e-05
0.0010579 -0.000115245 -7.71386e-05
0.001 -0.00018641 -0.000108604
0 0 0
5.57529e-05 7.30512e-06 7.30512e-06
0.000115103 1.22971e-05 1.22971e-05
0.000173286 1.41553e-05 1.41553e-05
0.000231138 1.47354e-05 1.47354e-05
0.000289018 1.48001e-05 1.48001e-05
0.000346997 1.47198e-05 1.47198e-05
0.000405056 1.46316e-05 1.46316e-05
0.000463166 1.4577e-05 1.4577e-05
0.0005213 1.4571e-05 1.4571e-05
0.000579432 1.46387e-05 1.46387e-05
0.000637517 1.48339e-05 1.48339e-05
0.000695467 1.52412e-05 1.52412e-05
0.000753111 1.59343e-05 1.59343e-05
0.000810176 1.6822e-05 1.6822e-05
0.000866356 1.7259e-05 1.7259e-05
0.000921719 1.51373e-05 1.51373e-05
0.000978086 5.66319e-06 5.66319e-06
0.00104308 -2.39783e-05 -2.39783e-05
0.00110087 -7.71656e-05 -7.71656e-05
0.001 -0.000108783 -0.000108783
0 0 0
5.50982e-05 3.25315e-06 7.35274e-06
0.000113501 5.7412e-06 1.23941e-05
0.000172058 7.01049e-06 1.42361e-05
0.000230424 7.39566e-06 1.47825e-05
0.00028867 7.44124e-06 1.48214e-05
0.000346851 7.38891e-06 1.47272e-05
0.000404999 7.33118e-06 1.46324e-05
0.000463131 7.29544e-06 1.45746e-05
0.000521253 7.29159e-06 1.45664e-05
0.00057937 7.33606e-06 1.4632e-05
0.000637486 7.46422e-06 1.48273e-05
0.000695619 7.73142e-06 1.52434e-05
0.000753822 8.18547e-06 1.59704e-05
0.000812215 8.76662e-06 1.69487e-05
0.000871032 9.03517e-06 1.75835e-05
0.000930693 7.59603e-06 1.57929e-05
0.000992121 7.62337e-07 6.60125e-06
0.00105577 -1.55881e-05 -2.38294e-05
0.00110668 -3.72527e-05 -8.01035e-05
0.001 -4.93635e-05 -0.000114477
0 0 0
5.49142e-05 2.68569e-18 7.38018e-06
0.000113154 5.35219e-18 1.24357e-05
0.000171629 7.78934e-18 1.42759e-05
0.000230135 9.86754e-18 1.48077e-05
0.000288514 1.14641e-17 1.48339e-05
0.000346778 1.24845e-17 1.47319e-05
0.000404967 1.28524e-17 1.46332e-05
0.000463112 1.25777e-17 1.45735e-05
0.000521236 1.16812e-17 1.45641e-05
0.000579355 1.03693e-17 1.46289e-05
0.000637499 8.63918e-18 1.4825e-05
0.000695738 6.64505e-18 1.52476e-05
0.000754214 4.60394e-18 1.59954e-05
0.000813191 2.69219e-18 1.70259e-05
0.000873044 9.36458e-19 1.77654e-05
0.000934123 -5.65119e-19 1.61276e-05
0.000995974 -1.60594e-18 6.98262e-06
0.00105825 -2.36569e-18 -2.39405e-05
0.00110743 -2.7455e-18 -8.14402e-05
0.001 -4.5075e-19 -0.00011675
0 0 0
5.50982e-05 -3.25315e-06 7.35274e-06
0.000113501 -5.7412e-06 1.23941e-05
0.000172058 -7.01049e-06 1.42361e-05
0.000230424 -7.39566e-06 1.47825e-05
0.00028867 -7.44124e-06 1.48214e-05
0.000346851 -7.38891e-06 1.47272e-05
0.000404999 -7.33118e-06 1.46324e-05
0.000463131 -7.29544e-06 1.45746e-05
0.000521253 -7.29159e-06 1.45664e-05
0.00057937 -7.33606e-06 1.4632e-05
0.000637486 -7.46422e-06 1.48273e-05
0.000695619 -7.73142e-06 1.52434e-05
0.000753822 -8.18547e-06 1.59704e-05
0.000812215 -8.76662e-06 1.69487e-05
0.000871032 -9.03517e-06 1.75835e-05
0.000930693 -7.59603e-06 1.57929e-05
0.000992121 -7.62337e-07 6.60125e-06
0.00105577 1.55881e-05 -2.38294e-05
0.00110668 3.72527e-05 -8.01035e-05
0.001 4.93635e-05 -0.000114477
0 0 0
5.57529e-05 -7.30512e-06 7.30512e-06
0.000115103 -1.22971e-05 1.22971e-05
0.000173286 -1.41553e-05 1.41553e-05
0.000231138 -1.47354e-05 1.47354e-05
0.000289018 -1.48001e-05 1.48001e-05
0.000346997 -1.47198e-05 1.47198e-05
0.000405056 -1.46316e-05 1.46316e-05
0.000463166 -1.4577e-05 1.4577e-05
0.0005213 -1.4571e-05 1.4571e-05
0.000579432 -1.46387e-05 1.46387e-05
0.000637517 -1.48339e-05 1.48339e-05
0.000695467 -1.52412e-05 1.52412e-05
0.000753111 -1.59343e-05 1.59343e-05
0.000810176 -1.6822e-05 1.6822e-05
0.000866356 -1.7259e-05 1.7259e-05
0.000921719 -1.51373e-05 1.51373e-05
0.000978086 -5.66319e-06 5.66319e-06
0.00104308 2.39783e-05 -2.39783e-05
0.00110087 7.71656e-05 -7.71656e-05
0.001 0.000108783 -0.000108783
0 0 0
6.08436e-05 -1.43115e-05 7.31466e-06
0.000118162 -1.92924e-05 1.23222e-05
0.000174764 -2.13213e-05 1.41693e-05
0.000231754 -2.19497e-05 1.4747e-05
0.000289219 -2.20484e-05 1.48061e-05
0.000347032 -2.19825e-05 1.47226e-05
0.000405047 -2.18998e-05 1.46324e-05
0.000463169 -2.18475e-05 1.45768e-05
0.000521346 -2.1844e-05 1.45703e-05
0.000579547 -2.19156e-05 1.4638e-05
0.000637716 -2.21155e-05 1.48345e-05
0.000695706 -2.25228e-05 1.52463e-05
0.000753162 -2.31952e-05 1.59505e-05
0.000809365 -2.40069e-05 1.68604e-05
0.000863101 -2.4235e-05 1.73349e-05
0.000912847 -2.17963e-05 1.5249e-05
0.000957755 -1.1335e-05 5.74092e-06
0.00100152 1.71466e-05 -2.39536e-05
0.0010579 0.000115245 -7.71386e-05
0.001 0.00018641 -0.000108604
0 0 0
6.02153e-05 1.44334e-05 3.28302e-06
0.000116565 1.94768e-05 5.78601e-06
0.000173523 2.14788e-05 7.05039e-06
0.000231016 2.20369e-05 7.4204e-06
0.000288855 2.20885e-05 7.45406e-06
0.000346878 2.19967e-05 7.39414e-06
0.000404985 2.19017e-05 7.33244e-06
0.000463131 2.18434e-05 7.29465e-06
0.000521298 2.18358e-05 7.28965e-06
0.000579486 2.19042e-05 7.33376e-06
0.000637692 2.21052e-05 7.46374e-06
0.000695882 2.25305e-05 7.73888e-06
0.000753932 2.3266e-05 8.21511e-06
0.000811521 2.42415e-05 8.8461e-06
0.000867962 2.48146e-05 9.20585e-06
0.000921965 2.29834e-05 7.88802e-06
0.000971475 1.30842e-05 1.11404e-06
0.00101291 -1.61685e-05 -1.55767e-05
0.00106233 -0.000119936 -3.81096e-05
0.001 -0.000197278 -5.08578e-05
0 0 0
5.50982e-05 7.35274e-06 3.25315e-06
0.000113501 1.23941e-05 5.7412e-06
0.000172058 1.42361e-05 7.01049e-06
0.000230424 1.47825e-05 7.39566e-06
0.00028867 1.48214e-05 7.44124e-06
0.000346851 1.47272e-05 7.38891e-06
0.000404999 1.46324e-05 7.33118e-06
0.000463131 1.45746e-05 7.29544e-06
0.000521253 1.45664e-05 7.29159e-06
0.00057937 1.4632e-05 7.33606e-06
0.000637486 1.48273e-05 7.46422e-06
0.000695619 1.52434e-05 7.73142e-06
0.000753822 1.59704e-05 8.18547e-06
0.000812215 1.69487e-05 8.76662e-06
0.000871032 1.75835e-05 9.03517e-06
0.000930693 1.57929e-05 7.59603e-06
0.000992121 6.60125e-06 7.62337e-07
0.00105577 -2.38294e-05 -1.55881e-05
0.00110668 -8.01035e-05 -3.72527e-05
0.001 -0.000114477 -4.93635e-05
0 0 0
5.44576e-05 3.27293e-06 3.27293e-06
0.000111899 5.77137e-06 5.77137e-06
0.000170823 7.03942e-06 7.03942e-06
0.000229705 7.41395e-06 7.41395e-06
0.000288323 7.44991e-06 7.44991e-06
0.000346708 7.39192e-06 7.39192e-06
0.000404943 7.33151e-06 7.33151e-06
0.000463096 7.29445e-06 7.29445e-06
0.000521207 7.28968e-06 7.28968e-06
0.000579306 7.33331e-06 7.33331e-06
0.000637448 7.4615e-06 7.4615e-06
0.00069576 7.73238e-06 7.73238e-06
0.000754518 8.20071e-06 8.20071e-06
0.000814245 8.82073e-06 8.82073e-06
0.000875748 9.17238e-06 9.17238e-06
0.000939838 7.85885e-06 7.85885e-06
0.00100646 1.05175e-06 1.05175e-06
0.0010683 -1.57076e-05 -1.57076e-05
0.0011116 -3.83561e-05 -3.83561e-05
0.001 -5.13888e-05 -5.13888e-05
0 0 0
5.42779e-05 4.24575e-18 3.2837e-06
0.000111554 8.45848e-18 5.78943e-06
0.000170392 1.22944e-17 7.05617e-06
0.000229414 1.55852e-17 7.42505e-06
0.000288166 1.80915e-17 7.45549e-06
0.000346635 1.97179e-17 7.39405e-06
0.000404911 2.0331e-17 7.33188e-06
0.000463078 1.98986e-17 7.29394e-06
0.000521189 1.84989e-17 7.2886e-06
0.00057929 1.63671e-17 7.33186e-06
0.00063746 1.36096e-17 7.46042e-06
0.000695875 1.04997e-17 7.73424e-06
0.000754907 7.26745e-18 8.21232e-06
0.000815225 4.18402e-18 8.85668e-06
0.000877787 1.38487e-18 9.2565e-06
0.00094334 -1.00545e-18 8.0051e-06
0.00101037 -2.83069e-18 1.19425e-06
0.00107066 -4.06528e-18 -1.58065e-05
0.00111208 -4.59529e-18 -3.8957e-05
0.001 -1.12344e-18 -5.23985e-05
0 0 0
5.44576e-05 -3.27293e-06 3.27293e-06
0.000111899 -5.77137e-06 5.77137e-06
0.000170823 -7.03942e-06 7.03942e-06
0.000229705 -7.41395e-06 7.41395e-06
0.000288323 -7.44991e-06 7.44991e-06
0.000346708 -7.39192e-06 7.39192e-06
0.000404943 -7.33151e-06 7.33151e-06
0.000463096 -7.29445e-06 7.29445e-06
0.000521207 -7.28968e-06 7.28968e-06
0.000579306 -7.33331e-06 7.33331e-06
0.000637448 -7.4615e-06 7.4615e-06
0.00069576 -7.73238e-06 7.73238e-06
0.000754518 -8.20071e-06 8.20071e-06
0.000814245 -8.82073e-06 8.82073e-06
0.000875748 -9.17238e-06 9.17238e-06
0.000939838 -7.85885e-06 7.85885e-06
0.00100646 -1.05175e-06 1.05175e-06
0.0010683 1.57076e-05 -1.57076e-05
0.0011116 3.83561e-05 -3.83561e-05
0.001 5.13888e-05 -5.13888e-05
0 0 0
5.50982e-05 -7.35274e-06 3.25315e-06
0.000113501 -1.23941e-05 5.7412e-06
0.000172058 -1.42361e-05 7.01049e-06
0.000230424 -1.47825e-05 7.39566e-06
0.00028867 -1.48214e-05 7.44124e-06
0.000346851 -1.47272e-05 7.38891e-06
0.000404999 -1.46324e-05 7.33118e-06
0.000463131 -1.45746e-05 7.29544e-06
0.000521253 -1.45664e-05 7.29159e-06
0.00057937 -1.4632e-05 7.33606e-06
0.000637486 -1.48273e-05 7.46422e-06
0.000695619 -1.52434e-05 7.73142e-06
0.000753822 -1.59704e-05 8.18547e-06
0.000812215 -1.69487e-05 8.76662e-06
0.000871032 -1.75835e-05 9.03517e-06
0.000930693 -1.57929e-05 7.59603e-06
0.000992121 -6.60125e-06 7.62337e-07
0.00105577 2.38294e-05 -1.55881e-05
0.00110668 8.01035e-05 -3.72527e-05
0.001 0.000114477 -4.93635e-05
0 0 0
6.02153e-05 -1.44334e-05 3.28302e-06
0.000116565 -1.94768e-05 5.78601e-06
0.000173523 -2.14788e-05 7.05039e-06
0.000231016 -2.20369e-05 7.4204e-06
0.000288855 -2.20885e-05 7.45406e-06
0.000346878 -2.19967e-05 7.39414e-06
0.000404985 -2.19017e-05 7.33244e-06
0.000463131 -2.18434e-05 7.29465e-06
0.000521298 -2.18358e-05 7.28965e-06
0.000579486 -2.19042e-05 7.33376e-06
0.000637692 -2.21052e-05 7.46374e-06
0.000695882 -2.25305e-05 7.73888e-06
0.000753932 -2.3266e-05 8.21511e-06
0.000811521 -2.42415e-05 8.8461e-06
0.000867962 -2.48146e-05 9.20585e-06
0.000921965 -2.29834e-05 7.88802e-06
0.000971475 -1.30842e-05 1.11404e-06
0.00101291 1.61685e-05 -1.55767e-05
0.00106233 0.000119936 -3.81096e-05
0.001 0.000197278 -5.08578e-05
0 0 0
6.0045e-05 1.44691e-05 5.87725e-20
0.000116224 1.95502e-05 1.33535e-19
0.000173088 2.15415e-05 2.65841e-19
0.000230718 2.20782e-05 4.22037e-19
0.000288691 2.21087e-05 6.45758e-19
0.0003468 2.20046e-05 9.009e-19
0.000404951 2.19033e-05 1.15505e-18
0.000463111 2.18419e-05 1.35438e-18
0.00052128 2.18323e-05 1.57344e-18
0.000579471 2.18997e-05 1.67025e-18
0.000637709 2.21027e-05 1.64684e-18
0.000696012 2.25391e-05 1.62585e-18
0.000754351 2.33089e-05 1.81613e-18
0.00081255 2.43661e-05 1.8133e-18
0.000870052 2.51034e-05 1.99042e-18
0.000925444 2.35011e-05 2.16573e-18
0.000975194 1.37262e-05 2.22729e-18
0.00101484 -1.61915e-05 2.35883e-18
0.00106245 -0.000121897 2.48488e-18
0.001 -0.000200841 8.96799e-19
0 0 0
5.49142e-05 7.38018e-06 3.42218e-19
0.000113154 1.24357e-05 8.16907e-19
0.000171629 1.42759e-05 1.57965e-18
0.000230135 1.48077e-05 2.60264e-18
0.000288514 1.48339e-05 3.93505e-18
0.000346778 1.47319e-05 5.31474e-18
0.000404967 1.46332e-05 6.7429e-18
0.000463112 1.45735e-05 7.96457e-18
0.000521236 1.45641e-05 8.95754e-18
0.000579355 1.46289e-05 9.63511e-18
0.000637499 1.4825e-05 1.00195e-17
0.000695738 1.52476e-05 1.02374e-17
0.000754214 1.59954e-05 1.05419e-17
0.000813191 1.70259e-05 1.0784e-17
0.000873044 1.77654e-05 1.11649e-17
0.000934123 1.61276e-05 1.16038e-17
0.000995974 6.98262e-06 1.1888e-17
0.00105825 -2.39405e-05 1.21156e-17
0.00110743 -8.14402e-05 1.20256e-17
0.001 -0.00011675 3.65372e-18
0 0 0
5.42779e-05 3.2837e-06 5.48755e-19
0.000111554 5.78943e-06 1.30604e-18
0.000170392 7.05617e-06 2.54125e-18
0.000229414 7.42505e-06 4.17741e-18
0.000288166 7.45549e-06 6.28316e-18
0.000346635 7.39405e-06 8.52877e-18
0.000404911 7.33188e-06 1.079e-17
0.000463078 7.29394e-06 1.27468e-17
0.000521189 7.2886e-06 1.43158e-17
0.00057929 7.33186e-06 1.53879e-17
0.00063746 7.46042e-06 1.60265e-17
0.000695875 7.73424e-06 1.64408e-17
0.000754907 8.21232e-06 1.68991e-17
0.000815225 8.85668e-06 1.72406e-17
0.000877787 9.2565e-06 1.78044e-17
0.00094334 8.0051e-06 1.84342e-17
0.00101037 1.19425e-06 1.88827e-17
0.00107066 -1.58065e-05 1.91137e-17
0.00111208 -3.8957e-05 1.89959e-17
0.001 -5.23985e-05 5.84203e-18
0 0 0
5.40997e-05 4.80838e-18 6.23286e-19
0.00011121 9.57312e-18 1.48431e-18
0.00016996 1.39066e-17 2.88423e-18
0.000229122 1.76261e-17 4.7606e-18
0.000288008 2.04982e-17 7.12923e-18
0.000346562 2.23212e-17 9.6766e-18
0.000404879 2.30025e-17 1.22356e-17
0.000463059 2.25138e-17 1.44909e-17
0.00052117 2.09355e-17 1.62525e-17
0.000579273 1.85213e-17 1.74625e-17
0.000637471 1.5423e-17 1.82245e-17
0.00069599 1.1853e-17 1.87321e-17
0.000755296 8.24954e-18 1.91762e-17
0.00081621 4.74514e-18 1.96282e-17
0.000879845 1.54332e-18 2.02118e-17
0.000946873 -1.2242e-18 2.09212e-17
0.00101428 -3.27188e-18 2.14627e-17
0.00107293 -4.67536e-18 2.17444e-17
0.00111243 -5.32849e-18 2.15355e-17
0.001 -1.2691e-18 6.79734e-18
0 0 0
5.42779e-05 -3.2837e-06 5.52995e-19
0.000111554 -5.78943e-06 1.30847e-18
0.000170392 -7.05617e-06 2.53434e-18
0.000229414 -7.42505e-06 4.18381e-18
0.000288166 -7.45549e-06 6.28874e-18
0.000346635 -7.39405e-06 8.53335e-18
0.000404911 -7.33188e-06 1.07944e-17
0.000463078 -7.29394e-06 1.27652e-17
0.000521189 -7.2886e-06 1.4358e-17
0.00057929 -7.33186e-06 1.54356e-17
0.00063746 -7.46042e-06 1.61161e-17
0.000695875 -7.73424e-06 1.65566e-17
0.000754907 -8.21232e-06 1.69825e-17
0.000815225 -8.85668e-06 1.73584e-17
0.000877787 -9.2565e-06 1.79002e-17
0.00094334 -8.0051e-06 1.85415e-17
0.00101037 -1.19425e-06 1.89728e-17
0.00107066 1.58065e-05 1.93585e-17
0.00111208 3.8957e-05 1.91988e-17
0.001 5.23985e-05 6.14054e-18
0 0 0
5.49142e-05 -7.38018e-06 3.51062e-19
0.000113154 -1.24357e-05 8.20114e-19
0.000171629 -1.42759e-05 1.58098e-18
0.000230135 -1.48077e-05 2.60931e-18
0.000288514 -1.48339e-05 3.90913e-18
0.000346778 -1.47319e-05 5.35072e-18
0.000404967 -1.46332e-05 6.76122e-18
0.000463112 -1.45735e-05 8.00206e-18
0.000521236 -1.45641e-05 8.99211e-18
0.000579355 -1.46289e-05 9.678e-18
0.000637499 -1.4825e-05 1.01474e-17
0.000695738 -1.52476e-05 1.04229e-17
0.000754214 -1.59954e-05 1.0747e-17
0.000813191 -1.70259e-05 1.09486e-17
0.000873044 -1.77654e-05 1.13317e-17
0.000934123 -1.61276e-05 1.17923e-17
0.000995974 -6.98262e-06 1.21802e-17
0.00105825 2.39405e-05 1.247e-17
0.00110743 8.14402e-05 1.2396e-17
0.001 0.00011675 4.08197e-18
0 0 0
6.0045e-05 -1.44691e-05 6.11023e-20
0.000116224 -1.95502e-05 1.44929e-19
0.000173088 -2.15415e-05 2.62722e-19
0.000230718 -2.20782e-05 4.31931e-19
0.000288691 -2.21087e-05 6.47078e-19
0.0003468 -2.20046e-05 8.94146e-19
0.000404951 -2.19033e-05 1.17268e-18
0.000463111 -2.18419e-05 1.37553e-18
0.00052128 -2.18323e-05 1.59533e-18