<?xml version="1.0"?>
<VTKFile type="UnstructuredGrid" version="0.1" byte_order="LittleEndian">
<UnstructuredGrid>
<Piece NumberOfPoints="1029" NumberOfCells="720">
<Points>
<DataArray type="Float32" NumberOfComponents="3" format="ascii">
0 0 0
0.005 0 0
0.01 0 0
0.015 0 0
0.02 0 0
0.025 0 0
0.03 0 0
0.035 0 0
0.04 0 0
0.045 0 0
0.05 0 0
0.055 0 0
0.06 0 0
0.065 0 0
0.07 0 0
0.075 0 0
0.08 0 0
0.085 0 0
0.09 0 0
0.095 0 0
0.1 0 0
0 0.005 0
0.005 0.005 0
0.01 0.005 0
0.015 0.005 0
0.02 0.005 0
0.025 0.005 0
0.03 0.005 0
0.035 0.005 0
0.04 0.005 0
0.045 0.005 0
0.05 0.005 0
0.055 0.005 0
0.06 0.005 0
0.065 0.005 0
0.07 0.005 0
0.075 0.005 0
0.08 0.005 0
0.085 0.005 0
0.09 0.005 0
0.095 0.005 0
0.1 0.005 0
0 0.01 0
0.005 0.01 0
0.01 0.01 0
0.015 0.01 0
0.02 0.01 0
0.025 0.01 0
0.03 0.01 0
0.035 0.01 0
0.04 0.01 0
0.045 0.01 0
0.05 0.01 0
0.055 0.01 0
0.06 0.01 0
0.065 0.01 0
0.07 0.01 0
0.075 0.01 0
0.08 0.01 0
0.085 0.01 0
0.09 0.01 0
0.095 0.01 0
0.1 0.01 0
0 0.015 0
0.005 0.015 0
0.01 0.015 0
0.015 0.015 0
0.02 0.015 0
0.025 0.015 0
0.03 0.015 0
0.035 0.015 0
0.04 0.015 0
0.045 0.015 0
0.05 0.015 0
0.055 0.015 0
0.06 0.015 0
0.065 0.015 0
0.07 0.015 0
0.075 0.015 0
0.08 0.015 0
0.085 0.015 0
0.09 0.015 0
0.095 0.015 0
0.1 0.015 0
0 0.02 0
0.005 0.02 0
0.01 0.02 0
0.015 0.02 0
0.02 0.02 0
0.025 0.02 0
0.03 0.02 0
0.035 0.02 0
0.04 0.02 0
0.045 0.02 0
0.05 0.02 0
0.055 0.02 0
0.06 0.02 0
0.065 0.02 0
0.07 0.02 0
0.075 0.02 0
0.08 0.02 0
0.085 0.02 0
0.09 0.02 0
0.095 0.02 0
0.1 0.02 0
0 0.025 0
0.005 0.025 0
0.01 0.025 0
0.015 0.025 0
0.02 0.025 0
0.025 0.025 0
0.03 0.025 0
0.035 0.025 0
0.04 0.025 0
0.045 0.025 0
0.05 0.025 0
0.055 0.025 0
0.06 0.025 0
0.065 0.025 0
0.07 0.025 0
0.075 0.025 0
0.08 0.025 0
0.085 0.025 0
0.09 0.025 0
0.095 0.025 0
0.1 0.025 0
0 0.03 0
0.005 0.03 0
0.01 0.03 0
0.015 0.03 0
0.02 0.03 0
0.025 0.03 0
0.03 0.03 0
0.035 0.03 0
0.04 0.03 0
0.045 0.03 0
0.05 0.03 0
0.055 0.03 0
0.06 0.03 0
0.065 0.03 0
0.07 0.03 0
0.075 0.03 0
0.08 0.03 0
0.085 0.03 0
0.09 0.03 0
0.095 0.03 0
0.1 0.03 0
0 0 0.005
0.005 0 0.005
0.01 0 0.005
0.015 0 0.005
0.02 0 0.005
0.025 0 0.005
0.03 0 0.005
0.035 0 0.005
0.04 0 0.005
0.045 0 0.005
0.05 0 0.005
0.055 0 0.005
0.06 0 0.005
0.065 0 0.005
0.07 0 0.005
0.075 0 0.005
0.08 0 0.005
0.085 0 0.005
0.09 0 0.005
0.095 0 0.005
0.1 0 0.005
0 0.005 0.005
0.005 0.005 0.005
0.01 0.005 0.005
0.015 0.005 0.005
0.02 0.005 0.005
0.025 0.005 0.005
0.03 0.005 0.005
0.035 0.005 0.005
0.04 0.005 0.005
0.045 0.005 0.005
0.05 0.005 0.005
0.055 0.005 0.005
0.06 0.005 0.005
0.065 0.005 0.005
0.07 0.005 0.005
0.075 0.005 0.005
0.08 0.005 0.005
0.085 0.005 0.005
0.09 0.005 0.005
0.095 0.005 0.005
0.1 0.005 0.005
0 0.01 0.005
0.005 0.01 0.005
0.01 0.01 0.005
0.015 0.01 0.005
0.02 0.01 0.005
0.025 0.01 0.005
0.03 0.01 0.005
0.035 0.01 0.005
0.04 0.01 0.005
0.045 0.01 0.005
0.05 0.01 0.005
0.055 0.01 0.005
0.06 0.01 0.005
0.065 0.01 0.005
0.07 0.01 0.005
0.075 0.01 0.005
0.08 0.01 0.005
0.085 0.01 0.005
0.09 0.01 0.005
0.095 0.01 0.005
0.1 0.01 0.005
0 0.015 0.005
0.005 0.015 0.005
0.01 0.015 0.005
0.015 0.015 0.005
0.02 0.015 0.005
0.025 0.015 0.005
0.03 0.015 0.005
0.035 0.015 0.005
0.04 0.015 0.005
0.045 0.015 0.005
0.05 0.015 0.005
0.055 0.015 0.005
0.06 0.015 0.005
0.065 0.015 0.005
0.07 0.015 0.005
0.075 0.015 0.005
0.08 0.015 0.005
0.085 0.015 0.005
0.09 0.015 0.005
0.095 0.015 0.005
0.1 0.015 0.005
0 0.02 0.005
0.005 0.02 0.005
0.01 0.02 0.005
0.015 0.02 0.005
0.02 0.02 0.005
0.025 0.02 0.005
0.03 0.02 0.005
0.035 0.02 0.005
0.04 0.02 0.005
0.045 0.02 0.005
0.05 0.02 0.005
0.055 0.02 0.005
0.06 0.02 0.005
0.065 0.02 0.005
0.07 0.02 0.005
0.075 0.02 0.005
0.08 0.02 0.005
0.085 0.02 0.005
0.09 0.02 0.005
0.095 0.02 0.005
0.1 0.02 0.005
0 0.025 0.005
0.005 0.025 0.005
0.01 0.025 0.005
0.015 0.025 0.005
0.02 0.025 0.005
0.025 0.025 0.005
0.03 0.025 0.005
0.035 0.025 0.005
0.04 0.025 0.005
0.045 0.025 0.005
0.05 0.025 0.005
0.055 0.025 0.005
0.06 0.025 0.005
0.065 0.025 0.005
0.07 0.025 0.005
0.075 0.025 0.005
0.08 0.025 0.005
0.085 0.025 0.005
0.09 0.025 0.005
0.095 0.025 0.005
0.1 0.025 0.005
0 0.03 0.005
0.005 0.03 0.005
0.01 0.03 0.005
0.015 0.03 0.005
0.02 0.03 0.005
0.025 0.03 0.005
0.03 0.03 0.005
0.035 0.03 0.005
0.04 0.03 0.005
0.045 0.03 0.005
0.05 0.03 0.005
0.055 0.03 0.005
0.06 0.03 0.005
0.065 0.03 0.005
0.07 0.03 0.005
0.075 0.03 0.005
0.08 0.03 0.005
0.085 0.03 0.005
0.09 0.03 0.005
0.095 0.03 0.005
0.1 0.03 0.005
0 0 0.01
0.005 0 0.01
0.01 0 0.01
0.015 0 0.01
0.02 0 0.01
0.025 0 0.01
0.03 0 0.01
0.035 0 0.01
0.04 0 0.01
0.045 0 0.01
0.05 0 0.01
0.055 0 0.01
0.06 0 0.01
0.065 0 0.01
0.07 0 0.01
0.075 0 0.01
0.08 0 0.01
0.085 0 0.01
0.09 0 0.01
0.095 0 0.01
0.1 0 0.01
0 0.005 0.01
0.005 0.005 0.01
0.01 0.005 0.01
0.015 0.005 0.01
0.02 0.005 0.01
0.025 0.005 0.01
0.03 0.005 0.01
0.035 0.005 0.01
0.04 0.005 0.01
0.045 0.005 0.01
0.05 0.005 0.01
0.055 0.005 0.01
0.06 0.005 0.01
0.065 0.005 0.01
0.07 0.005 0.01
0.075 0.005 0.01
0.08 0.005 0.01
0.085 0.005 0.01
0.09 0.005 0.01
0.095 0.005 0.01
0.1 0.005 0.01
0 0.01 0.01
0.005 0.01 0.01
0.01 0.01 0.01
0.015 0.01 0.01
0.02 0.01 0.01
0.025 0.01 0.01
0.03 0.01 0.01
0.035 0.01 0.01
0.04 0.01 0.01
0.045 0.01 0.01
0.05 0.01 0.01
0.055 0.01 0.01
0.06 0.01 0.01
0.065 0.01 0.01
0.07 0.01 0.01
0.075 0.01 0.01
0.08 0.01 0.01
0.085 0.01 0.01
0.09 0.01 0.01
0.095 0.01 0.01
0.1 0.01 0.01
0 0.015 0.01
0.005 0.015 0.01
0.01 0.015 0.01
0.015 0.015 0.01
0.02 0.015 0.01
0.025 0.015 0.01
0.03 0.015 0.01
0.035 0.015 0.01
0.04 0.015 0.01
0.045 0.015 0.01
0.05 0.015 0.01
0.055 0.015 0.01
0.06 0.015 0.01
0.065 0.015 0.01
0.07 0.015 0.01
0.075 0.015 0.01
0.08 0.015 0.01
0.085 0.015 0.01
0.09 0.015 0.01
0.095 0.015 0.01
0.1 0.015 0.01
0 0.02 0.01
0.005 0.02 0.01
0.01 0.02 0.01
0.015 0.02 0.01
0.02 0.02 0.01
0.025 0.02 0.01
0.03 0.02 0.01
0.035 0.02 0.01
0.04 0.02 0.01
0.045 0.02 0.01
0.05 0.02 0.01
0.055 0.02 0.01
0.06 0.02 0.01
0.065 0.02 0.01
0.07 0.02 0.01
0.075 0.02 0.01
0.08 0.02 0.01
0.085 0.02 0.01
0.09 0.02 0.01
0.095 0.02 0.01
0.1 0.02 0.01
0 0.025 0.01
0.005 0.025 0.01
0.01 0.025 0.01
0.015 0.025 0.01
0.02 0.025 0.01
0.025 0.025 0.01
0.03 0.025 0.01
0.035 0.025 0.01
0.04 0.025 0.01
0.045 0.025 0.01
0.05 0.025 0.01
0.055 0.025 0.01
0.06 0.025 0.01
0.065 0.025 0.01
0.07 0.025 0.01
0.075 0.025 0.01
0.08 0.025 0.01
0.085 0.025 0.01
0.09 0.025 0.01
0.095 0.025 0.01
0.1 0.025 0.01
0 0.03 0.01
0.005 0.03 0.01
0.01 0.03 0.01
0.015 0.03 0.01
0.02 0.03 0.01
0.025 0.03 0.01
0.03 0.03 0.01
0.035 0.03 0.01
0.04 0.03 0.01
0.045 0.03 0.01
0.05 0.03 0.01
0.055 0.03 0.01
0.06 0.03 0.01
0.065 0.03 0.01
0.07 0.03 0.01
0.075 0.03 0.01
0.08 0.03 0.01
0.085 0.03 0.01
0.09 0.03 0.01
0.095 0.03 0.01
0.1 0.03 0.01
0 0 0.015
0.005 0 0.015
0.01 0 0.015
0.015 0 0.015
0.02 0 0.015
0.025 0 0.015
0.03 0 0.015
0.035 0 0.015
0.04 0 0.015
0.045 0 0.015
0.05 0 0.015
0.055 0 0.015
0.06 0 0.015
0.065 0 0.015
0.07 0 0.015
0.075 0 0.015
0.08 0 0.015
0.085 0 0.015
0.09 0 0.015
0.095 0 0.015
0.1 0 0.015
0 0.005 0.015
0.005 0.005 0.015
0.01 0.005 0.015
0.015 0.005 0.015
0.02 0.005 0.015
0.025 0.005 0.015
0.03 0.005 0.015
0.035 0.005 0.015
0.04 0.005 0.015
0.045 0.005 0.015
0.05 0.005 0.015
0.055 0.005 0.015
0.06 0.005 0.015
0.065 0.005 0.015
0.07 0.005 0.015
0.075 0.005 0.015
0.08 0.005 0.015
0.085 0.005 0.015
0.09 0.005 0.015
0.095 0.005 0.015
0.1 0.005 0.015
0 0.01 0.015
0.005 0.01 0.015
0.01 0.01 0.015
0.015 0.01 0.015
0.02 0.01 0.015
0.025 0.01 0.015
0.03 0.01 0.015
0.035 0.01 0.015
0.04 0.01 0.015
0.045 0.01 0.015
0.05 0.01 0.015
0.055 0.01 0.015
0.06 0.01 0.015
0.065 0.01 0.015
0.07 0.01 0.015
0.075 0.01 0.015
0.08 0.01 0.015
0.085 0.01 0.015
0.09 0.01 0.015
0.095 0.01 0.015
0.1 0.01 0.015
0 0.015 0.015
0.005 0.015 0.015
0.01 0.015 0.015
0.015 0.015 0.015
0.02 0.015 0.015
0.025 0.015 0.015
0.03 0.015 0.015
0.035 0.015 0.015
0.04 0.015 0.015
0.045 0.015 0.015
0.05 0.015 0.015
0.055 0.015 0.015
0.06 0.015 0.015
0.065 0.015 0.015
0.07 0.015 0.015
0.075 0.015 0.015
0.08 0.015 0.015
0.085 0.015 0.015
0.09 0.015 0.015
0.095 0.015 0.015
0.1 0.015 0.015
0 0.02 0.015
0.005 0.02 0.015
0.01 0.02 0.015
0.015 0.02 0.015
0.02 0.02 0.015
0.025 0.02 0.015
0.03 0.02 0.015
0.035 0.02 0.015
0.04 0.02 0.015
0.045 0.02 0.015
0.05 0.02 0.015
0.055 0.02 0.015
0.06 0.02 0.015
0.065 0.02 0.015
0.07 0.02 0.015
0.075 0.02 0.015
0.08 0.02 0.015
0.085 0.02 0.015
0.09 0.02 0.015
0.095 0.02 0.015
0.1 0.02 0.015
0 0.025 0.015
0.005 0.025 0.015
0.01 0.025 0.015
0.015 0.025 0.015
0.02 0.025 0.015
0.025 0.025 0.015
0.03 0.025 0.015
0.035 0.025 0.015
0.04 0.025 0.015
0.045 0.025 0.015
0.05 0.025 0.015
0.055 0.025 0.015
0.06 0.025 0.015
0.065 0.025 0.015
0.07 0.025 0.015
0.075 0.025 0.015
0.08 0.025 0.015
0.085 0.025 0.015
0.09 0.025 0.015
0.095 0.025 0.015
0.1 0.025 0.015
0 0.03 0.015
0.005 0.03 0.015
0.01 0.03 0.015
0.015 0.03 0.015
0.02 0.03 0.015
0.025 0.03 0.015
0.03 0.03 0.015
0.035 0.03 0.015
0.04 0.03 0.015
0.045 0.03 0.015
0.05 0.03 0.015
0.055 0.03 0.015
0.06 0.03 0.015
0.065 0.03 0.015
0.07 0.03 0.015
0.075 0.03 0.015
0.08 0.03 0.015
0.085 0.03 0.015
0.09 0.03 0.015
0.095 0.03 0.015
0.1 0.03 0.015
0 0 0.02
0.005 0 0.02
0.01 0 0.02
0.015 0 0.02
0.02 0 0.02
0.025 0 0.02
0.03 0 0.02
0.035 0 0.02
0.04 0 0.02
0.045 0 0.02
0.05 0 0.02
0.055 0 0.02
0.06 0 0.02
0.065 0 0.02
0.07 0 0.02
0.075 0 0.02
0.08 0 0.02
0.085 0 0.02
0.09 0 0.02
0.095 0 0.02
0.1 0 0.02
0 0.005 0.02
0.005 0.005 0.02
0.01 0.005 0.02
0.015 0.005 0.02
0.02 0.005 0.02
0.025 0.005 0.02
0.03 0.005 0.02
0.035 0.005 0.02
0.04 0.005 0.02
0.045 0.005 0.02
0.05 0.005 0.02
0.055 0.005 0.02
0.06 0.005 0.02
0.065 0.005 0.02
0.07 0.005 0.02
0.075 0.005 0.02
0.08 0.005 0.02
0.085 0.005 0.02
0.09 0.005 0.02
0.095 0.005 0.02
0.1 0.005 0.02
0 0.01 0.02
0.005 0.01 0.02
0.01 0.01 0.02
0.015 0.01 0.02
0.02 0.01 0.02
0.025 0.01 0.02
0.03 0.01 0.02
0.035 0.01 0.02
0.04 0.01 0.02
0.045 0.01 0.02
0.05 0.01 0.02
0.055 0.01 0.02
0.06 0.01 0.02
0.065 0.01 0.02
0.07 0.01 0.02
0.075 0.01 0.02
0.08 0.01 0.02
0.085 0.01 0.02
0.09 0.01 0.02
0.095 0.01 0.02
[...]
<PointData Vectors="Displacement">
<DataArray type="Float32" Name="Displacement" NumberOfComponents="3" format="ascii">
0 0 0
0.00185585 0.000598656 0.000598656
0.00349115 0.000719174 0.000719174
0.00515989 0.000772917 0.000772917
0.00687897 0.000785165 0.000785165
0.00862595 0.000787407 0.000787407
0.0103861 0.000786898 0.000786898
0.0121512 0.000786276 0.000786276
0.0139179 0.000785908 0.000785908
0.0156849 0.000785746 0.000785746
0.017452 0.00078569 0.00078569
0.0192191 0.000785688 0.000785688
0.0209862 0.000785725 0.000785725
0.0227531 0.000785802 0.000785802
0.0245195 0.000785901 0.000785901
0.0262846 0.000785811 0.000785811
0.0280467 0.000784855 0.000784855
0.0298029 0.000780221 0.000780221
0.0315513 0.000768319 0.000768319
0.0333062 0.000713862 0.000713862
0.035 0.000671163 0.000671163
0 0 0
0.00171771 0.000326307 0.000605253
0.0034233 0.00048025 0.000729486
0.00513173 0.000518366 0.00077562
0.00686898 0.000527019 0.000786297
0.00862305 0.00052667 0.000787655
0.0103855 0.000525343 0.000786935
0.0121512 0.000524441 0.00078626
0.013918 0.000524012 0.000785893
0.015685 0.000523844 0.000785737
0.0174521 0.000523794 0.000785686
0.0192191 0.000523796 0.000785685
0.0209862 0.000523839 0.000785722
0.0227531 0.000523941 0.000785803
0.0245197 0.000524118 0.00078592
0.0262855 0.000524278 0.000785909
0.0280494 0.00052376 0.000785136
0.0298098 0.000520646 0.000781162
0.0315677 0.000507056 0.000770294
0.0333235 0.000475057 0.000712209
0.035 0.000453602 0.000665079
0 0 0
0.00169468 0.000149063 0.000628667
0.00337201 0.000234044 0.00074396
0.00510179 0.000261326 0.000783228
0.00685506 0.000265051 0.000788918
0.00861783 0.000264221 0.000788466
0.0103838 0.000263037 0.000787097
0.0121508 0.000262352 0.000786261
0.0139179 0.000262044 0.00078587
0.015685 0.00026193 0.00078572
0.0174521 0.000261897 0.000785676
0.0192191 0.0002619 0.000785679
0.0209862 0.000261931 0.000785718
0.0227532 0.000262007 0.000785813
0.0245202 0.000262152 0.000785989
0.0262869 0.000262323 0.000786156
0.0280526 0.000262187 0.000785886
0.0298159 0.000260032 0.000782779
0.0315729 0.000251907 0.000772611
0.0333248 0.000237593 0.000709666
0.035 0.000228725 0.000656918
0 0 0
0.0016888 -2.5157e-18 0.000635689
0.00335881 -3.52768e-18 0.000751253
0.00508911 -2.27065e-18 0.000786471
0.00684902 -4.33987e-19 0.000790337
0.00861533 -9.18112e-21 0.000788883
0.010383 -1.51088e-18 0.000787201
0.0121506 -3.61425e-18 0.000786269
0.0139179 -4.14332e-18 0.000785861
0.015685 -3.42812e-18 0.000785713
0.0174521 -5.54017e-19 0.000785672
0.0192192 1.03795e-18 0.000785676
0.0209862 1.86972e-18 0.000785718
0.0227533 2.56668e-19 0.000785821
0.0245204 -3.0113e-18 0.000786026
0.0262875 -6.36322e-18 0.00078629
0.028054 -7.07919e-18 0.000786228
0.0298178 -4.81561e-18 0.000783517
0.0315738 -9.02309e-20 0.000773189
0.0333245 4.01031e-18 0.000708531
0.035 2.7158e-18 0.000654233
0 0 0
0.00169468 -0.000149063 0.000628667
0.00337201 -0.000234044 0.00074396
0.00510179 -0.000261326 0.000783228
0.00685506 -0.000265051 0.000788918
0.00861783 -0.000264221 0.000788466
0.0103838 -0.000263037 0.000787097
0.0121508 -0.000262352 0.000786261
0.0139179 -0.000262044 0.00078587
0.015685 -0.00026193 0.00078572
0.0174521 -0.000261897 0.000785676
0.0192191 -0.0002619 0.000785679
0.0209862 -0.000261931 0.000785718
0.0227532 -0.000262007 0.000785813
0.0245202 -0.000262152 0.000785989
0.0262869 -0.000262323 0.000786156
0.0280526 -0.000262187 0.000785886
0.0298159 -0.000260032 0.000782779
0.0315729 -0.000251907 0.000772611
0.0333248 -0.000237593 0.000709666
0.035 -0.000228725 0.000656918
0 0 0
0.00171771 -0.000326307 0.000605253
0.0034233 -0.00048025 0.000729486
0.00513173 -0.000518366 0.00077562
0.00686898 -0.000527019 0.000786297
0.00862305 -0.00052667 0.000787655
0.0103855 -0.000525343 0.000786935
0.0121512 -0.000524441 0.00078626
0.013918 -0.000524012 0.000785893
0.015685 -0.000523844 0.000785737
0.0174521 -0.000523794 0.000785686
0.0192191 -0.000523796 0.000785685
0.0209862 -0.000523839 0.000785722
0.0227531 -0.000523941 0.000785803
0.0245197 -0.000524118 0.00078592
0.0262855 -0.000524278 0.000785909
0.0280494 -0.00052376 0.000785136
0.0298098 -0.000520646 0.000781162
0.0315677 -0.000507056 0.000770294
0.0333235 -0.000475057 0.000712209
0.035 -0.000453602 0.000665079
0 0 0
0.00185585 -0.000598656 0.000598656
0.00349115 -0.000719174 0.000719174
0.00515989 -0.000772917 0.000772917
0.00687897 -0.000785165 0.000785165
0.00862595 -0.000787407 0.000787407
0.0103861 -0.000786898 0.000786898
0.0121512 -0.000786276 0.000786276
0.0139179 -0.000785908 0.000785908
0.0156849 -0.000785746 0.000785746
0.017452 -0.00078569 0.00078569
0.0192191 -0.000785688 0.000785688
0.0209862 -0.000785725 0.000785725
0.0227531 -0.000785802 0.000785802
0.0245195 -0.000785901 0.000785901
0.0262846 -0.000785811 0.000785811
0.0280467 -0.000784855 0.000784855
0.0298029 -0.000780221 0.000780221
0.0315513 -0.000768319 0.000768319
0.0333062 -0.000713862 0.000713862
0.035 -0.000671163 0.000671163
0 0 0
0.00171771 0.000605253 0.000326307
0.0034233 0.000729486 0.00048025
0.00513173 0.00077562 0.000518366
0.00686898 0.000786297 0.000527019
0.00862305 0.000787655 0.00052667
0.0103855 0.000786935 0.000525343
0.0121512 0.00078626 0.000524441
0.013918 0.000785893 0.000524012
0.015685 0.000785737 0.000523844
0.0174521 0.000785686 0.000523794
0.0192191 0.000785685 0.000523796
0.0209862 0.000785722 0.000523839
0.0227531 0.000785803 0.000523941
0.0245197 0.00078592 0.000524118
0.0262855 0.000785909 0.000524278
0.0280494 0.000785136 0.00052376
0.0298098 0.000781162 0.000520646
0.0315677 0.000770294 0.000507056
0.0333235 0.000712209 0.000475057
0.035 0.000665079 0.000453602
0 0 0
0.00157322 0.000324722 0.000324722
0.00335727 0.000479733 0.000479733
0.00510582 0.000517966 0.000517966
0.00685984 0.000526744 0.000526744
0.00862053 0.000526571 0.000526571
0.010385 0.000525303 0.000525303
0.0121512 0.00052443 0.00052443
0.013918 0.00052401 0.00052401
0.015685 0.000523844 0.000523844
0.0174521 0.000523794 0.000523794
0.0192191 0.000523796 0.000523796
0.0209862 0.000523838 0.000523838
0.0227531 0.000523938 0.000523938
0.0245199 0.000524108 0.000524108
0.0262863 0.000524253 0.000524253
0.0280519 0.000523714 0.000523714
0.0298164 0.000520651 0.000520651
0.0315847 0.000507087 0.000507087
0.0333421 0.000474845 0.000474845
0.035 0.000452807 0.000452807
0 0 0
0.0015497 0.00014507 0.00033535
0.00330696 0.00023079 0.000489305
0.00507736 0.000259661 0.00052259
0.00684698 0.000264343 0.000528457
0.00861572 0.000263974 0.000527061
0.0103835 0.000262971 0.000525402
0.0121509 0.000262341 0.000524427
0.013918 0.000262046 0.000523994
0.0156851 0.000261933 0.000523833
0.0174521 0.000261899 0.000523788
0.0192191 0.000261901 0.000523792
0.0209862 0.000261931 0.000523836
0.0227532 0.000262002 0.000523944
0.0245204 0.00026213 0.00052415
0.0262876 0.000262254 0.000524415
0.0280549 0.000262022 0.000524187
0.0298225 0.000259722 0.000521702
0.0315905 0.000251626 0.000508101
0.033344 0.000237904 0.000473111
0.035 0.000229368 0.000448317
0 0 0
0.00154307 -9.29509e-18 0.000340139
0.00329424 -1.36508e-17 0.000493913
0.0050654 -1.15513e-17 0.000525063
0.00684135 -6.96961e-18 0.000529427
0.00861343 -6.19808e-18 0.000527365
0.0103828 -9.76313e-18 0.00052547
0.0121507 -1.37473e-17 0.000524431
0.013918 -1.40648e-17 0.000523987
0.0156851 -1.1925e-17 0.000523828
0.0174521 -7.99289e-18 0.000523785
0.0192192 -6.84763e-18 0.00052379
0.0209862 -7.56906e-18 0.000523835
0.0227533 -1.0626e-17 0.000523948
0.0245206 -1.5557e-17 0.000524176
0.0262882 -2.21954e-17 0.000524509
0.0280563 -2.41685e-17 0.000524444
0.0298243 -1.85201e-17 0.000522192
0.0315916 -8.14439e-18 0.000508415
0.0333441 9.08792e-19 0.000472309
0.035 2.04438e-18 0.000446543
0 0 0
0.0015497 -0.00014507 0.00033535
0.00330696 -0.00023079 0.000489305
0.00507736 -0.000259661 0.00052259
0.00684698 -0.000264343 0.000528457
0.00861572 -0.000263974 0.000527061
0.0103835 -0.000262971 0.000525402
0.0121509 -0.000262341 0.000524427
0.013918 -0.000262046 0.000523994
0.0156851 -0.000261933 0.000523833
0.0174521 -0.000261899 0.000523788
0.0192191 -0.000261901 0.000523792
0.0209862 -0.000261931 0.000523836
0.0227532 -0.000262002 0.000523944
0.0245204 -0.00026213 0.00052415
0.0262876 -0.000262254 0.000524415
0.0280549 -0.000262022 0.000524187
0.0298225 -0.000259722 0.000521702
0.0315905 -0.000251626 0.000508101
0.033344 -0.000237904 0.000473111
0.035 -0.000229368 0.000448317
0 0 0
0.00157322 -0.000324722 0.000324722
0.00335727 -0.000479733 0.000479733
0.00510582 -0.000517966 0.000517966
0.00685984 -0.000526744 0.000526744
0.00862053 -0.000526571 0.000526571
0.010385 -0.000525303 0.000525303
0.0121512 -0.00052443 0.00052443
0.013918 -0.00052401 0.00052401
0.015685 -0.000523844 0.000523844
0.0174521 -0.000523794 0.000523794
0.0192191 -0.000523796 0.000523796
0.0209862 -0.000523838 0.000523838
0.0227531 -0.000523938 0.000523938
0.0245199 -0.000524108 0.000524108
0.0262863 -0.000524253 0.000524253
0.0280519 -0.000523714 0.000523714
0.0298164 -0.000520651 0.000520651
0.0315847 -0.000507087 0.000507087
0.0333421 -0.000474845 0.000474845
0.035 -0.000452807 0.000452807
0 0 0
0.00171771 -0.000605253 0.000326307
0.0034233 -0.000729486 0.00048025
0.00513173 -0.00077562 0.000518366
0.00686898 -0.000786297 0.000527019
0.00862305 -0.000787655 0.00052667
0.0103855 -0.000786935 0.000525343
0.0121512 -0.00078626 0.000524441
0.013918 -0.000785893 0.000524012
0.015685 -0.000785737 0.000523844
0.0174521 -0.000785686 0.000523794
0.0192191 -0.000785685 0.000523796
0.0209862 -0.000785722 0.000523839
0.0227531 -0.000785803 0.000523941
0.0245197 -0.00078592 0.000524118
0.0262855 -0.000785909 0.000524278
0.0280494 -0.000785136 0.00052376
0.0298098 -0.000781162 0.000520646
0.0315677 -0.000770294 0.000507056
0.0333235 -0.000712209 0.000475057
0.035 -0.000665079 0.000453602
0 0 0
0.00169468 0.000628667 0.000149063
0.00337201 0.00074396 0.000234044
0.00510179 0.000783228 0.000261326
0.00685506 0.000788918 0.000265051
0.00861783 0.000788466 0.000264221
0.0103838 0.000787097 0.000263037
0.0121508 0.000786261 0.000262352
0.0139179 0.00078587 0.000262044
0.015685 0.00078572 0.00026193
0.0174521 0.000785676 0.000261897
0.0192191 0.000785679 0.0002619
0.0209862 0.000785718 0.000261931
0.0227532 0.000785813 0.000262007
0.0245202 0.000785989 0.000262152
0.0262869 0.000786156 0.000262323
0.0280526 0.000785886 0.000262187
0.0298159 0.000782779 0.000260032
0.0315729 0.000772611 0.000251907
0.0333248 0.000709666 0.000237593
0.035 0.000656918 0.000228725
0 0 0
0.0015497 0.00033535 0.00014507
0.00330696 0.000489305 0.00023079
0.00507736 0.00052259 0.000259661
0.00684698 0.000528457 0.000264343
0.00861572 0.000527061 0.000263974
0.0103835 0.000525402 0.000262971
0.0121509 0.000524427 0.000262341
0.013918 0.000523994 0.000262046
0.0156851 0.000523833 0.000261933
0.0174521 0.000523788 0.000261899
0.0192191 0.000523792 0.000261901
0.0209862 0.000523836 0.000261931
0.0227532 0.000523944 0.000262002
0.0245204 0.00052415 0.00026213
0.0262876 0.000524415 0.000262254
0.0280549 0.000524187 0.000262022
0.0298225 0.000521702 0.000259722
0.0315905 0.000508101 0.000251626
0.033344 0.000473111 0.000237904
0.035 0.000448317 0.000229368
0 0 0
0.00152761 0.000149369 0.000149369
0.00325504 0.000234611 0.000234611
0.00504851 0.000261757 0.000261757
0.00683416 0.000265117 0.000265117
0.00861106 0.000264196 0.000264196
0.0103821 0.000263012 0.000263012
0.0121506 0.000262338 0.000262338
0.013918 0.000262038 0.000262038
0.0156851 0.000261928 0.000261928
0.0174521 0.000261896 0.000261896
0.0192192 0.000261899 0.000261899
0.0209862 0.00026193 0.00026193
0.0227534 0.000262004 0.000262004
0.0245208 0.000262149 0.000262149
0.0262889 0.000262329 0.000262329
0.028058 0.000262244 0.000262244
0.0298288 0.000260146 0.000260146
0.0315962 0.000251921 0.000251921
0.0333452 0.000237167 0.000237167
0.035 0.000227602 0.000227602
0 0 0
0.00152142 -1.1386e-17 0.0001514
0.00324205 -1.64894e-17 0.000236721
0.00503619 -1.31539e-17 0.00026294
0.00682853 -8.04435e-18 0.000265597
0.0086088 -9.27987e-18 0.000264343
0.0103814 -1.66293e-17 0.000263045
0.0121504 -2.33881e-17 0.00026234
0.013918 -2.35824e-17 0.000262035
0.0156851 -1.96357e-17 0.000261925
0.0174521 -1.47531e-17 0.000261895
0.0192192 -1.3696e-17 0.000261898
0.0209862 -1.48061e-17 0.000261929
0.0227534 -1.77771e-17 0.000262006
0.024521 -2.40037e-17 0.000262162
0.0262894 -3.11073e-17 0.000262376
0.0280594 -3.41578e-17 0.000262369
0.0298308 -2.77891e-17 0.000260366
0.0315972 -1.47007e-17 0.000252032
0.033345 -1.69175e-18 0.000236787
0.035 2.16659e-18 0.000226791
0 0 0
0.00152761 -0.000149369 0.000149369
0.00325504 -0.000234611 0.000234611
0.00504851 -0.000261757 0.000261757
0.00683416 -0.000265117 0.000265117
0.00861106 -0.000264196 0.000264196
0.0103821 -0.000263012 0.000263012
0.0121506 -0.000262338 0.000262338
0.013918 -0.000262038 0.000262038
0.0156851 -0.000261928 0.000261928
0.0174521 -0.000261896 0.000261896
0.0192192 -0.000261899 0.000261899
0.0209862 -0.00026193 0.00026193
0.0227534 -0.000262004 0.000262004
0.0245208 -0.000262149 0.000262149
0.0262889 -0.000262329 0.000262329
0.028058 -0.000262244 0.000262244
0.0298288 -0.000260146 0.000260146
0.0315962 -0.000251921 0.000251921
0.0333452 -0.000237167 0.000237167
0.035 -0.000227602 0.000227602
0 0 0
0.0015497 -0.00033535 0.00014507
0.00330696 -0.000489305 0.00023079
0.00507736 -0.00052259 0.000259661
0.00684698 -0.000528457 0.000264343
0.00861572 -0.000527061 0.000263974
0.0103835 -0.000525402 0.000262971
0.0121509 -0.000524427 0.000262341
0.013918 -0.000523994 0.000262046
0.0156851 -0.000523833 0.000261933
0.0174521 -0.000523788 0.000261899
0.0192191 -0.000523792 0.000261901
0.0209862 -0.000523836 0.000261931
0.0227532 -0.000523944 0.000262002
0.0245204 -0.00052415 0.00026213
0.0262876 -0.000524415 0.000262254
0.0280549 -0.000524187 0.000262022
0.0298225 -0.000521702 0.000259722
0.0315905 -0.000508101 0.000251626
0.033344 -0.000473111 0.000237904
0.035 -0.000448317 0.000229368
0 0 0
0.00169468 -0.000628667 0.000149063
0.00337201 -0.00074396 0.000234044
0.00510179 -0.000783228 0.000261326
0.00685506 -0.000788918 0.000265051
0.00861783 -0.000788466 0.000264221
0.0103838 -0.000787097 0.000263037
0.0121508 -0.000786261 0.000262352
0.0139179 -0.00078587 0.000262044
0.015685 -0.00078572 0.00026193
0.0174521 -0.000785676 0.000261897
0.0192191 -0.000785679 0.0002619
0.0209862 -0.000785718 0.000261931
0.0227532 -0.000785813 0.000262007
0.0245202 -0.000785989 0.000262152
0.0262869 -0.000786156 0.000262323
0.0280526 -0.000785886 0.000262187
0.0298159 -0.000782779 0.000260032
0.0315729 -0.000772611 0.000251907
0.0333248 -0.000709666 0.000237593
0.035 -0.000656918 0.000228725
0 0 0
0.0016888 0.000635689 -1.77311e-18
0.00335881 0.000751253 -1.79254e-18
0.00508911 0.000786471 -9.24778e-20
0.00684902 0.000790337 2.02687e-18
0.00861533 0.000788883 1.75951e-18
0.010383 0.000787201 -2.58555e-19
0.0121506 0.000786269 -3.67625e-18
0.0139179 0.000785861 -4.85806e-18
0.015685 0.000785713 -3.1594e-18
0.0174521 0.000785672 1.6366e-18
0.0192192 0.000785676 5.31391e-18
0.0209862 0.000785718 7.06838e-18
0.0227533 0.000785821 5.91319e-18
0.0245204 0.000786026 -1.07018e-18
0.0262875 0.00078629 -5.03925e-18
0.028054 0.000786228 -5.12094e-18
0.0298178 0.000783517 -1.75917e-18
0.0315738 0.000773189 3.93655e-18
0.0333245 0.000708531 8.45866e-18
0.035 0.000654233 6.41981e-18
0 0 0
0.00154307 0.000340139 -5.15757e-18
0.00329424 0.000493913 -4.74143e-18
0.0050654 0.000525063 1.94233e-18
0.00684135 0.000529427 8.84003e-18
0.00861343 0.000527365 6.99213e-18
0.0103828 0.00052547 -3.3858e-18
0.0121507 0.000524431 -1.46967e-17
0.013918 0.000523987 -1.85472e-17
0.0156851 0.000523828 -1.13977e-17
0.0174521 0.000523785 2.54557e-18
0.0192192 0.00052379 1.47669e-17
0.0209862 0.000523835 1.88273e-17
0.0227533 0.000523948 1.27643e-17
0.0245206 0.000524176 -3.49577e-18
0.0262882 0.000524509 -1.74214e-17
0.0280563 0.000524444 -2.05773e-17
0.0298243 0.000522192 -1.03121e-17
0.0315916 0.000508415 7.641e-18
0.0333441 0.000472309 2.28562e-17
0.035 0.000446543 1.06703e-17
0 0 0
0.00152142 0.0001514 -7.3872e-18
0.00324205 0.000236721 -7.82014e-18
0.00503619 0.00026294 7.90894e-20
0.00682853 0.000265597 7.92322e-18
0.0086088 0.000264343 5.89205e-18
0.0103814 0.000263045 -5.31213e-18
0.0121504 0.00026234 -1.64819e-17
0.013918 0.000262035 -1.89209e-17
0.0156851 0.000261925 -1.07904e-17
0.0174521 0.000261895 2.74009e-18
0.0192192 0.000261898 1.28177e-17
0.0209862 0.000261929 1.55857e-17
0.0227534 0.000262006 1.04865e-17
0.024521 0.000262162 -3.95204e-18
0.0262894 0.000262376 -1.73532e-17
0.0280594 0.000262369 -2.08386e-17
0.0298308 0.000260366 -1.15284e-17
0.0315972 0.000252032 6.73779e-18
0.033345 0.000236787 2.20892e-17
0.035 0.000226791 1.07504e-17
0 0 0
0.00151531 -6.68152e-18 -4.20823e-18
0.00322894 -9.348e-18 -4.77347e-18
0.00502371 -7.46732e-18 -1.06402e-18
0.00682284 -7.36796e-18 9.94959e-19
0.00860654 -1.27666e-17 -1.89747e-18
0.0103807 -2.08362e-17 -7.21815e-18
0.0121502 -2.39406e-17 -8.25901e-18
0.0139179 -2.14124e-17 -4.30187e-18
0.0156851 -1.89827e-17 -2.49646e-19
0.0174521 -2.05087e-17 -7.89602e-20
0.0192192 -2.67097e-17 -4.63935e-18
0.0209862 -3.02496e-17 -7.20143e-18
0.0227535 -2.72961e-17 -3.46958e-18
0.0245212 -2.27866e-17 -5.20294e-19
0.02629 -2.12958e-17 1.75907e-18
0.0280608 -2.3373e-17 5.29594e-19
0.0298327 -2.36543e-17 -1.78558e-18
0.0315983 -2.13479e-17 -8.77295e-19
0.0333447 -1.49077e-17 2.37697e-18
0.035 -2.84421e-18 2.29846e-18
0 0 0
0.00152142 -0.0001514 -2.97512e-19
0.00324205 -0.000236721 -5.51046e-19
0.00503619 -0.00026294 -2.05686e-18
0.00682853 -0.000265597 -5.7119e-18
0.0086088 -0.000264343 -9.20713e-18
0.0103814 -0.000263045 -7.22036e-18
0.0121504 -0.00026234 2.02224e-18
0.013918 -0.000262035 1.11625e-17
0.0156851 -0.000261925 1.03201e-17
0.0174521 -0.000261895 -3.02836e-18
0.0192192 -0.000261898 -2.09573e-17
0.0209862 -0.000261929 -2.80884e-17
0.0227534 -0.000262006 -1.6502e-17
0.024521 -0.000262162 3.51006e-18
0.0262894 -0.000262376 2.05145e-17
0.0280594 -0.000262369 2.2083e-17
0.0298308 -0.000260366 8.9649e-18
0.0315972 -0.000252032 -7.77837e-18
0.033345 -0.000236787 -1.84759e-17
0.035 -0.000226791 -7.0206e-18
0 0 0
0.00154307 -0.000340139 5.01207e-19
0.00329424 -0.000493913 -3.84387e-19
0.0050654 -0.000525063 -3.08788e-18
0.00684135 -0.000529427 -7.5526e-18
0.00861343 -0.000527365 -9.33886e-18
0.0103828 -0.00052547 -4.7668e-18
0.0121507 -0.000524431 5.23835e-18
0.013918 -0.000523987 1.33429e-17
0.0156851 -0.000523828 1.12248e-17
0.0174521 -0.000523785 -2.50715e-18
0.0192192 -0.00052379 -2.02192e-17
0.0209862 -0.000523835 -2.68777e-17
0.0227533 -0.000523948 -1.59868e-17
0.0245206 -0.000524176 3.13251e-18
0.0262882 -0.000524509 2.00295e-17
0.0280563 -0.000524444 2.27071e-17
0.0298243 -0.000522192 9.74153e-18
0.0315916 -0.000508415 -7.19802e-18
0.0333441 -0.000472309 -2.00283e-17
0.035 -0.000446543 -7.23332e-18
0 0 0
0.0016888 -0.000635689 8.61479e-19
0.00335881 -0.000751253 8.26976e-19
0.00508911 -0.000786471 -3.52209e-19
0.00684902 -0.000790337 -1.61731e-18
0.00861533 -0.000788883 -2.74076e-18
0.010383 -0.000787201 -1.4281e-18
0.0121506 -0.000786269 1.98187e-18
0.0139179 -0.000785861 3.94692e-18
0.015685 -0.000785713 3.85555e-18
0.0174521 -0.000785672 -1.43721e-18
0.0192192 -0.000785676 -6.5428e-18
0.0209862 -0.000785718 -8.94595e-18
0.0227533 -0.000785821 -4.62944e-18
0.0245204 -0.000786026 8.00697e-19
0.0262875 -0.00078629 6.27858e-18
0.028054 -0.000786228 7.68482e-18
0.0298178 -0.000783517 4.02149e-18
0.0315738 -0.000773189 -1.89713e-18
0.0333245 -0.000708531 -5.84185e-18
0.035 -0.000654233 -3.10583e-18
0 0 0
0.00169468 0.000628667 -0.000149063
0.00337201 0.00074396 -0.000234044
0.00510179 0.000783228 -0.000261326
0.00685506 0.000788918 -0.000265051
0.00861783 0.000788466 -0.000264221
0.0103838 0.000787097 -0.000263037
0.0121508 0.000786261 -0.000262352
0.0139179 0.00078587 -0.000262044
0.015685 0.00078572 -0.00026193
0.0174521 0.000785676 -0.000261897
0.0192191 0.000785679 -0.0002619
0.0209862 0.000785718 -0.000261931