<?xml version="1.0"?>
<VTKFile type="UnstructuredGrid" version="0.1" byte_order="LittleEndian">
<UnstructuredGrid>
<Piece NumberOfPoints="1029" NumberOfCells="720">
<Points>
<DataArray type="Float32" NumberOfComponents="3" format="ascii">
0 0 0
0.005 0 0
0.01 0 0
0.015 0 0
0.02 0 0
0.025 0 0
0.03 0 0
0.035 0 0
0.04 0 0
0.045 0 0
0.05 0 0
0.055 0 0
0.06 0 0
0.065 0 0
0.07 0 0
0.075 0 0
0.08 0 0
0.085 0 0
0.09 0 0
0.095 0 0
0.1 0 0
0 0.005 0
0.005 0.005 0
0.01 0.005 0
0.015 0.005 0
0.02 0.005 0
0.025 0.005 0
0.03 0.005 0
0.035 0.005 0
0.04 0.005 0
0.045 0.005 0
0.05 0.005 0
0.055 0.005 0
0.06 0.005 0
0.065 0.005 0
0.07 0.005 0
0.075 0.005 0
0.08 0.005 0
0.085 0.005 0
0.09 0.005 0
0.095 0.005 0
0.1 0.005 0
0 0.01 0
0.005 0.01 0
0.01 0.01 0
0.015 0.01 0
0.02 0.01 0
0.025 0.01 0
0.03 0.01 0
0.035 0.01 0
0.04 0.01 0
0.045 0.01 0
0.05 0.01 0
0.055 0.01 0
0.06 0.01 0
0.065 0.01 0
0.07 0.01 0
0.075 0.01 0
0.08 0.01 0
0.085 0.01 0
0.09 0.01 0
0.095 0.01 0
0.1 0.01 0
0 0.015 0
0.005 0.015 0
0.01 0.015 0
0.015 0.015 0
0.02 0.015 0
0.025 0.015 0
0.03 0.015 0
0.035 0.015 0
0.04 0.015 0
0.045 0.015 0
0.05 0.015 0
0.055 0.015 0
0.06 0.015 0
0.065 0.015 0
0.07 0.015 0
0.075 0.015 0
0.08 0.015 0
0.085 0.015 0
0.09 0.015 0
0.095 0.015 0
0.1 0.015 0
0 0.02 0
0.005 0.02 0
0.01 0.02 0
0.015 0.02 0
0.02 0.02 0
0.025 0.02 0
0.03 0.02 0
0.035 0.02 0
0.04 0.02 0
0.045 0.02 0
0.05 0.02 0
0.055 0.02 0
0.06 0.02 0
0.065 0.02 0
0.07 0.02 0
0.075 0.02 0
0.08 0.02 0
0.085 0.02 0
0.09 0.02 0
0.095 0.02 0
0.1 0.02 0
0 0.025 0
0.005 0.025 0
0.01 0.025 0
0.015 0.025 0
0.02 0.025 0
0.025 0.025 0
0.03 0.025 0
0.035 0.025 0
0.04 0.025 0
0.045 0.025 0
0.05 0.025 0
0.055 0.025 0
0.06 0.025 0
0.065 0.025 0
0.07 0.025 0
0.075 0.025 0
0.08 0.025 0
0.085 0.025 0
0.09 0.025 0
0.095 0.025 0
0.1 0.025 0
0 0.03 0
0.005 0.03 0
0.01 0.03 0
0.015 0.03 0
0.02 0.03 0
0.025 0.03 0
0.03 0.03 0
0.035 0.03 0
0.04 0.03 0
0.045 0.03 0
0.05 0.03 0
0.055 0.03 0
0.06 0.03 0
0.065 0.03 0
0.07 0.03 0
0.075 0.03 0
0.08 0.03 0
0.085 0.03 0
0.09 0.03 0
0.095 0.03 0
0.1 0.03 0
0 0 0.005
0.005 0 0.005
0.01 0 0.005
0.015 0 0.005
0.02 0 0.005
0.025 0 0.005
0.03 0 0.005
0.035 0 0.005
0.04 0 0.005
0.045 0 0.005
0.05 0 0.005
0.055 0 0.005
0.06 0 0.005
0.065 0 0.005
0.07 0 0.005
0.075 0 0.005
0.08 0 0.005
0.085 0 0.005
0.09 0 0.005
0.095 0 0.005
0.1 0 0.005
0 0.005 0.005
0.005 0.005 0.005
0.01 0.005 0.005
0.015 0.005 0.005
0.02 0.005 0.005
0.025 0.005 0.005
0.03 0.005 0.005
0.035 0.005 0.005
0.04 0.005 0.005
0.045 0.005 0.005
0.05 0.005 0.005
0.055 0.005 0.005
0.06 0.005 0.005
0.065 0.005 0.005
0.07 0.005 0.005
0.075 0.005 0.005
0.08 0.005 0.005
0.085 0.005 0.005
0.09 0.005 0.005
0.095 0.005 0.005
0.1 0.005 0.005
0 0.01 0.005
0.005 0.01 0.005
0.01 0.01 0.005
0.015 0.01 0.005
0.02 0.01 0.005
0.025 0.01 0.005
0.03 0.01 0.005
0.035 0.01 0.005
0.04 0.01 0.005
0.045 0.01 0.005
0.05 0.01 0.005
0.055 0.01 0.005
0.06 0.01 0.005
0.065 0.01 0.005
0.07 0.01 0.005
0.075 0.01 0.005
0.08 0.01 0.005
0.085 0.01 0.005
0.09 0.01 0.005
0.095 0.01 0.005
0.1 0.01 0.005
0 0.015 0.005
0.005 0.015 0.005
0.01 0.015 0.005
0.015 0.015 0.005
0.02 0.015 0.005
0.025 0.015 0.005
0.03 0.015 0.005
0.035 0.015 0.005
0.04 0.015 0.005
0.045 0.015 0.005
0.05 0.015 0.005
0.055 0.015 0.005
0.06 0.015 0.005
0.065 0.015 0.005
0.07 0.015 0.005
0.075 0.015 0.005
0.08 0.015 0.005
0.085 0.015 0.005
0.09 0.015 0.005
0.095 0.015 0.005
0.1 0.015 0.005
0 0.02 0.005
0.005 0.02 0.005
0.01 0.02 0.005
0.015 0.02 0.005
0.02 0.02 0.005
0.025 0.02 0.005
0.03 0.02 0.005
0.035 0.02 0.005
0.04 0.02 0.005
0.045 0.02 0.005
0.05 0.02 0.005
0.055 0.02 0.005
0.06 0.02 0.005
0.065 0.02 0.005
0.07 0.02 0.005
0.075 0.02 0.005
0.08 0.02 0.005
0.085 0.02 0.005
0.09 0.02 0.005
0.095 0.02 0.005
0.1 0.02 0.005
0 0.025 0.005
0.005 0.025 0.005
0.01 0.025 0.005
0.015 0.025 0.005
0.02 0.025 0.005
0.025 0.025 0.005
0.03 0.025 0.005
0.035 0.025 0.005
0.04 0.025 0.005
0.045 0.025 0.005
0.05 0.025 0.005
0.055 0.025 0.005
0.06 0.025 0.005
0.065 0.025 0.005
0.07 0.025 0.005
0.075 0.025 0.005
0.08 0.025 0.005
0.085 0.025 0.005
0.09 0.025 0.005
0.095 0.025 0.005
0.1 0.025 0.005
0 0.03 0.005
0.005 0.03 0.005
0.01 0.03 0.005
0.015 0.03 0.005
0.02 0.03 0.005
0.025 0.03 0.005
0.03 0.03 0.005
0.035 0.03 0.005
0.04 0.03 0.005
0.045 0.03 0.005
0.05 0.03 0.005
0.055 0.03 0.005
0.06 0.03 0.005
0.065 0.03 0.005
0.07 0.03 0.005
0.075 0.03 0.005
0.08 0.03 0.005
0.085 0.03 0.005
0.09 0.03 0.005
0.095 0.03 0.005
0.1 0.03 0.005
0 0 0.01
0.005 0 0.01
0.01 0 0.01
0.015 0 0.01
0.02 0 0.01
0.025 0 0.01
0.03 0 0.01
0.035 0 0.01
0.04 0 0.01
0.045 0 0.01
0.05 0 0.01
0.055 0 0.01
0.06 0 0.01
0.065 0 0.01
0.07 0 0.01
0.075 0 0.01
0.08 0 0.01
0.085 0 0.01
0.09 0 0.01
0.095 0 0.01
0.1 0 0.01
0 0.005 0.01
0.005 0.005 0.01
0.01 0.005 0.01
0.015 0.005 0.01
0.02 0.005 0.01
0.025 0.005 0.01
0.03 0.005 0.01
0.035 0.005 0.01
0.04 0.005 0.01
0.045 0.005 0.01
0.05 0.005 0.01
0.055 0.005 0.01
0.06 0.005 0.01
0.065 0.005 0.01
0.07 0.005 0.01
0.075 0.005 0.01
0.08 0.005 0.01
0.085 0.005 0.01
0.09 0.005 0.01
0.095 0.005 0.01
0.1 0.005 0.01
0 0.01 0.01
0.005 0.01 0.01
0.01 0.01 0.01
0.015 0.01 0.01
0.02 0.01 0.01
0.025 0.01 0.01
0.03 0.01 0.01
0.035 0.01 0.01
0.04 0.01 0.01
0.045 0.01 0.01
0.05 0.01 0.01
0.055 0.01 0.01
0.06 0.01 0.01
0.065 0.01 0.01
0.07 0.01 0.01
0.075 0.01 0.01
0.08 0.01 0.01
0.085 0.01 0.01
0.09 0.01 0.01
0.095 0.01 0.01
0.1 0.01 0.01
0 0.015 0.01
0.005 0.015 0.01
0.01 0.015 0.01
0.015 0.015 0.01
0.02 0.015 0.01
0.025 0.015 0.01
0.03 0.015 0.01
0.035 0.015 0.01
0.04 0.015 0.01
0.045 0.015 0.01
0.05 0.015 0.01
0.055 0.015 0.01
0.06 0.015 0.01
0.065 0.015 0.01
0.07 0.015 0.01
0.075 0.015 0.01
0.08 0.015 0.01
0.085 0.015 0.01
0.09 0.015 0.01
0.095 0.015 0.01
0.1 0.015 0.01
0 0.02 0.01
0.005 0.02 0.01
0.01 0.02 0.01
0.015 0.02 0.01
0.02 0.02 0.01
0.025 0.02 0.01
0.03 0.02 0.01
0.035 0.02 0.01
0.04 0.02 0.01
0.045 0.02 0.01
0.05 0.02 0.01
0.055 0.02 0.01
0.06 0.02 0.01
0.065 0.02 0.01
0.07 0.02 0.01
0.075 0.02 0.01
0.08 0.02 0.01
0.085 0.02 0.01
0.09 0.02 0.01
0.095 0.02 0.01
0.1 0.02 0.01
0 0.025 0.01
0.005 0.025 0.01
0.01 0.025 0.01
0.015 0.025 0.01
0.02 0.025 0.01
0.025 0.025 0.01
0.03 0.025 0.01
0.035 0.025 0.01
0.04 0.025 0.01
0.045 0.025 0.01
0.05 0.025 0.01
0.055 0.025 0.01
0.06 0.025 0.01
0.065 0.025 0.01
0.07 0.025 0.01
0.075 0.025 0.01
0.08 0.025 0.01
0.085 0.025 0.01
0.09 0.025 0.01
0.095 0.025 0.01
0.1 0.025 0.01
0 0.03 0.01
0.005 0.03 0.01
0.01 0.03 0.01
0.015 0.03 0.01
0.02 0.03 0.01
0.025 0.03 0.01
0.03 0.03 0.01
0.035 0.03 0.01
0.04 0.03 0.01
0.045 0.03 0.01
0.05 0.03 0.01
0.055 0.03 0.01
0.06 0.03 0.01
0.065 0.03 0.01
0.07 0.03 0.01
0.075 0.03 0.01
0.08 0.03 0.01
0.085 0.03 0.01
0.09 0.03 0.01
0.095 0.03 0.01
0.1 0.03 0.01
0 0 0.015
0.005 0 0.015
0.01 0 0.015
0.015 0 0.015
0.02 0 0.015
0.025 0 0.015
0.03 0 0.015
0.035 0 0.015
0.04 0 0.015
0.045 0 0.015
0.05 0 0.015
0.055 0 0.015
0.06 0 0.015
0.065 0 0.015
0.07 0 0.015
0.075 0 0.015
0.08 0 0.015
0.085 0 0.015
0.09 0 0.015
0.095 0 0.015
0.1 0 0.015
0 0.005 0.015
0.005 0.005 0.015
0.01 0.005 0.015
0.015 0.005 0.015
0.02 0.005 0.015
0.025 0.005 0.015
0.03 0.005 0.015
0.035 0.005 0.015
0.04 0.005 0.015
0.045 0.005 0.015
0.05 0.005 0.015
0.055 0.005 0.015
0.06 0.005 0.015
0.065 0.005 0.015
0.07 0.005 0.015
0.075 0.005 0.015
0.08 0.005 0.015
0.085 0.005 0.015
0.09 0.005 0.015
0.095 0.005 0.015
0.1 0.005 0.015
0 0.01 0.015
0.005 0.01 0.015
0.01 0.01 0.015
0.015 0.01 0.015
0.02 0.01 0.015
0.025 0.01 0.015
0.03 0.01 0.015
0.035 0.01 0.015
0.04 0.01 0.015
0.045 0.01 0.015
0.05 0.01 0.015
0.055 0.01 0.015
0.06 0.01 0.015
0.065 0.01 0.015
0.07 0.01 0.015
0.075 0.01 0.015
0.08 0.01 0.015
0.085 0.01 0.015
0.09 0.01 0.015
0.095 0.01 0.015
0.1 0.01 0.015
0 0.015 0.015
0.005 0.015 0.015
0.01 0.015 0.015
0.015 0.015 0.015
0.02 0.015 0.015
0.025 0.015 0.015
0.03 0.015 0.015
0.035 0.015 0.015
0.04 0.015 0.015
0.045 0.015 0.015
0.05 0.015 0.015
0.055 0.015 0.015
0.06 0.015 0.015
0.065 0.015 0.015
0.07 0.015 0.015
0.075 0.015 0.015
0.08 0.015 0.015
0.085 0.015 0.015
0.09 0.015 0.015
0.095 0.015 0.015
0.1 0.015 0.015
0 0.02 0.015
0.005 0.02 0.015
0.01 0.02 0.015
0.015 0.02 0.015
0.02 0.02 0.015
0.025 0.02 0.015
0.03 0.02 0.015
0.035 0.02 0.015
0.04 0.02 0.015
0.045 0.02 0.015
0.05 0.02 0.015
0.055 0.02 0.015
0.06 0.02 0.015
0.065 0.02 0.015
0.07 0.02 0.015
0.075 0.02 0.015
0.08 0.02 0.015
0.085 0.02 0.015
0.09 0.02 0.015
0.095 0.02 0.015
0.1 0.02 0.015
0 0.025 0.015
0.005 0.025 0.015
0.01 0.025 0.015
0.015 0.025 0.015
0.02 0.025 0.015
0.025 0.025 0.015
0.03 0.025 0.015
0.035 0.025 0.015
0.04 0.025 0.015
0.045 0.025 0.015
0.05 0.025 0.015
0.055 0.025 0.015
0.06 0.025 0.015
0.065 0.025 0.015
0.07 0.025 0.015
0.075 0.025 0.015
0.08 0.025 0.015
0.085 0.025 0.015
0.09 0.025 0.015
0.095 0.025 0.015
0.1 0.025 0.015
0 0.03 0.015
0.005 0.03 0.015
0.01 0.03 0.015
0.015 0.03 0.015
0.02 0.03 0.015
0.025 0.03 0.015
0.03 0.03 0.015
0.035 0.03 0.015
0.04 0.03 0.015
0.045 0.03 0.015
0.05 0.03 0.015
0.055 0.03 0.015
0.06 0.03 0.015
0.065 0.03 0.015
0.07 0.03 0.015
0.075 0.03 0.015
0.08 0.03 0.015
0.085 0.03 0.015
0.09 0.03 0.015
0.095 0.03 0.015
0.1 0.03 0.015
0 0 0.02
0.005 0 0.02
0.01 0 0.02
0.015 0 0.02
0.02 0 0.02
0.025 0 0.02
0.03 0 0.02
0.035 0 0.02
0.04 0 0.02
0.045 0 0.02
0.05 0 0.02
0.055 0 0.02
0.06 0 0.02
0.065 0 0.02
0.07 0 0.02
0.075 0 0.02
0.08 0 0.02
0.085 0 0.02
0.09 0 0.02
0.095 0 0.02
0.1 0 0.02
0 0.005 0.02
0.005 0.005 0.02
0.01 0.005 0.02
0.015 0.005 0.02
0.02 0.005 0.02
0.025 0.005 0.02
0.03 0.005 0.02
0.035 0.005 0.02
0.04 0.005 0.02
0.045 0.005 0.02
0.05 0.005 0.02
0.055 0.005 0.02
0.06 0.005 0.02
0.065 0.005 0.02
0.07 0.005 0.02
0.075 0.005 0.02
0.08 0.005 0.02
0.085 0.005 0.02
0.09 0.005 0.02
0.095 0.005 0.02
0.1 0.005 0.02
0 0.01 0.02
0.005 0.01 0.02
0.01 0.01 0.02
0.015 0.01 0.02
0.02 0.01 0.02
0.025 0.01 0.02
0.03 0.01 0.02
0.035 0.01 0.02
0.04 0.01 0.02
0.045 0.01 0.02
0.05 0.01 0.02
0.055 0.01 0.02
0.06 0.01 0.02
0.065 0.01 0.02
0.07 0.01 0.02
0.075 0.01 0.02
0.08 0.01 0.02
0.085 0.01 0.02
0.09 0.01 0.02
0.095 0.01 0.02
[...]
<PointData Vectors="Displacement">
<DataArray type="Float32" Name="Displacement" NumberOfComponents="3" format="ascii">
0 0 0
0.00213783 0.00071026 0.00071026
0.00405289 0.000846138 0.000846138
0.00601018 0.000905851 0.000905851
0.00802774 0.000918667 0.000918667
0.0100766 0.000920954 0.000920954
0.0121396 0.000920431 0.000920431
0.0142077 0.000919843 0.000919843
0.0162773 0.00091951 0.00091951
0.0183473 0.000919369 0.000919369
0.0204173 0.000919322 0.000919322
0.0224873 0.000919318 0.000919318
0.0245572 0.000919343 0.000919343
0.026627 0.000919399 0.000919399
0.0286965 0.000919474 0.000919474
0.0307649 0.0009194 0.0009194
0.0328307 0.000918622 0.000918622
0.0348912 0.000914624 0.000914624
0.0369443 0.000904248 0.000904248
0.0390016 0.000854315 0.000854315
0.041 0.000814718 0.000814718
0 0 0
0.00198339 0.000390836 0.000719394
0.00397866 0.000566319 0.000858107
0.00598043 0.000607391 0.0009088
0.0080175 0.000616224 0.000919863
0.0100737 0.000615675 0.000921191
0.012139 0.000614321 0.000920462
0.0142077 0.000613457 0.000919826
0.0162774 0.000613068 0.000919496
0.0183473 0.000612923 0.000919362
0.0204173 0.000612881 0.000919319
0.0224873 0.000612881 0.000919316
0.0245572 0.000612911 0.000919341
0.0266271 0.000612986 0.0009194
0.0286967 0.000613122 0.000919488
0.0307656 0.000613258 0.000919479
0.0328329 0.000612852 0.000918857
0.034897 0.000610264 0.000915461
0.0369585 0.0005983 0.000906134
0.0390167 0.000568833 0.000852872
0.041 0.000548771 0.000809152
0 0 0
0.00195659 0.000179092 0.000749759
0.0039202 0.00027703 0.000875471
0.00594773 0.000306303 0.000917459
0.00800288 0.000309749 0.000922659
0.0100685 0.000308728 0.000922011
0.0121375 0.000307505 0.00092061
0.0142073 0.000306846 0.000919822
0.0162774 0.000306566 0.000919472
0.0183474 0.000306467 0.000919346
0.0204173 0.00030644 0.000919311
0.0224873 0.000306442 0.000919311
0.0245572 0.000306463 0.000919338
0.0266272 0.000306519 0.000919406
0.0286971 0.000306633 0.000919541
0.0307667 0.000306777 0.000919682
0.0328356 0.000306699 0.000919512
0.0349023 0.00030493 0.000916943
0.0369631 0.000297732 0.000908453
0.0390178 0.00028446 0.000850613
0.041 0.000276122 0.000801521
0 0 0
0.00194974 1.29519e-19 0.000758984
0.00390481 1.01762e-18 0.000884387
0.00593359 2.8945e-18 0.000921142
0.0079965 4.70228e-18 0.000924202
0.0100659 5.84468e-18 0.00092243
0.0121366 5.68877e-18 0.000920708
0.0142071 3.71116e-18 0.000919826
0.0162773 1.15402e-18 0.000919464
0.0183474 -1.86242e-18 0.00091934
0.0204173 -3.38089e-18 0.000919307
0.0224873 -4.57842e-18 0.000919309
0.0245573 -2.92895e-18 0.000919337
0.0266272 -1.33542e-18 0.000919412
0.0286973 1.24616e-18 0.00091957
0.0307672 3.43811e-18 0.000919794
0.0328368 5.09448e-18 0.000919809
0.034904 6.52912e-18 0.000917633
0.0369639 6.19946e-18 0.000909058
0.0390175 6.01851e-18 0.000849596
0.041 3.45573e-18 0.000799002
0 0 0
0.00195659 -0.000179092 0.000749759
0.0039202 -0.00027703 0.000875471
0.00594773 -0.000306303 0.000917459
0.00800288 -0.000309749 0.000922659
0.0100685 -0.000308728 0.000922011
0.0121375 -0.000307505 0.00092061
0.0142073 -0.000306846 0.000919822
0.0162774 -0.000306566 0.000919472
0.0183474 -0.000306467 0.000919346
0.0204173 -0.00030644 0.000919311
0.0224873 -0.000306442 0.000919311
0.0245572 -0.000306463 0.000919338
0.0266272 -0.000306519 0.000919406
0.0286971 -0.000306633 0.000919541
0.0307667 -0.000306777 0.000919682
0.0328356 -0.000306699 0.000919512
0.0349023 -0.00030493 0.000916943
0.0369631 -0.000297732 0.000908453
0.0390178 -0.00028446 0.000850613
0.041 -0.000276122 0.000801521
0 0 0
0.00198339 -0.000390836 0.000719394
0.00397866 -0.000566319 0.000858107
0.00598043 -0.000607391 0.0009088
0.0080175 -0.000616224 0.000919863
0.0100737 -0.000615675 0.000921191
0.012139 -0.000614321 0.000920462
0.0142077 -0.000613457 0.000919826
0.0162774 -0.000613068 0.000919496
0.0183473 -0.000612923 0.000919362
0.0204173 -0.000612881 0.000919319
0.0224873 -0.000612881 0.000919316
0.0245572 -0.000612911 0.000919341
0.0266271 -0.000612986 0.0009194
0.0286967 -0.000613122 0.000919488
0.0307656 -0.000613258 0.000919479
0.0328329 -0.000612852 0.000918857
0.034897 -0.000610264 0.000915461
0.0369585 -0.0005983 0.000906134
0.0390167 -0.000568833 0.000852872
0.041 -0.000548771 0.000809152
0 0 0
0.00213783 -0.00071026 0.00071026
0.00405289 -0.000846138 0.000846138
0.00601018 -0.000905851 0.000905851
0.00802774 -0.000918667 0.000918667
0.0100766 -0.000920954 0.000920954
0.0121396 -0.000920431 0.000920431
0.0142077 -0.000919843 0.000919843
0.0162773 -0.00091951 0.00091951
0.0183473 -0.000919369 0.000919369
0.0204173 -0.000919322 0.000919322
0.0224873 -0.000919318 0.000919318
0.0245572 -0.000919343 0.000919343
0.026627 -0.000919399 0.000919399
0.0286965 -0.000919474 0.000919474
0.0307649 -0.0009194 0.0009194
0.0328307 -0.000918622 0.000918622
0.0348912 -0.000914624 0.000914624
0.0369443 -0.000904248 0.000904248
0.0390016 -0.000854315 0.000854315
0.041 -0.000814718 0.000814718
0 0 0
0.00198339 0.000719394 0.000390836
0.00397866 0.000858107 0.000566319
0.00598043 0.0009088 0.000607391
0.0080175 0.000919863 0.000616224
0.0100737 0.000921191 0.000615675
0.012139 0.000920462 0.000614321
0.0142077 0.000919826 0.000613457
0.0162774 0.000919496 0.000613068
0.0183473 0.000919362 0.000612923
0.0204173 0.000919319 0.000612881
0.0224873 0.000919316 0.000612881
0.0245572 0.000919341 0.000612911
0.0266271 0.0009194 0.000612986
0.0286967 0.000919488 0.000613122
0.0307656 0.000919479 0.000613258
0.0328329 0.000918857 0.000612852
0.034897 0.000915461 0.000610264
0.0369585 0.000906134 0.0005983
0.0390167 0.000852872 0.000568833
0.041 0.000809152 0.000548771
0 0 0
0.00182123 0.00038915 0.00038915
0.00390692 0.000565888 0.000565888
0.00595321 0.000606967 0.000606967
0.00800816 0.000615942 0.000615942
0.0100712 0.000615577 0.000615577
0.0121386 0.000614283 0.000614283
0.0142077 0.000613447 0.000613447
0.0162775 0.000613066 0.000613066
0.0183474 0.000612923 0.000612923
0.0204173 0.000612881 0.000612881
0.0224873 0.000612881 0.000612881
0.0245572 0.00061291 0.00061291
0.0266271 0.000612983 0.000612983
0.0286968 0.000613114 0.000613114
0.0307662 0.000613238 0.000613238
0.0328349 0.000612815 0.000612815
0.0349025 0.000610278 0.000610278
0.0369732 0.00059835 0.00059835
0.0390329 0.000568626 0.000568626
0.041 0.000547965 0.000547965
0 0 0
0.00179409 0.000174204 0.000403327
0.00384975 0.000273203 0.00057766
0.00592227 0.000304465 0.000612303
0.00799471 0.000308999 0.000617805
0.0100664 0.000308481 0.000616076
0.0121372 0.000307443 0.000614374
0.0142074 0.000306837 0.00061344
0.0162774 0.000306568 0.00061305
0.0183474 0.00030647 0.000612913
0.0204173 0.000306442 0.000612876
0.0224873 0.000306442 0.000612878
0.0245572 0.000306463 0.000612908
0.0266272 0.000306515 0.000612987
0.0286972 0.000306615 0.000613146
0.0307673 0.000306721 0.000613373
0.0328375 0.000306559 0.000613231
0.0349078 0.000304652 0.000611265
0.0369783 0.000297454 0.000599403
0.0390345 0.000284719 0.00056707
0.041 0.000276671 0.00054374
0 0 0
0.00178643 -7.63391e-19 0.000409622
0.00383501 2.18165e-19 0.000583401
0.00590898 4.13119e-18 0.000615172
0.00798878 9.06472e-18 0.000618867
0.0100641 1.26198e-17 0.000616389
0.0121364 1.20111e-17 0.000614438
0.0142072 7.20911e-18 0.000613443
0.0162774 1.22047e-18 0.000613043
0.0183474 -5.35016e-18 0.000612908
0.0204174 -8.46404e-18 0.000612873
0.0224873 -1.07295e-17 0.000612876
0.0245572 -1.02917e-17 0.000612907
0.0266272 -7.05312e-18 0.00061299
0.0286974 -1.89685e-18 0.000613168
0.0307677 3.11031e-18 0.000613452
0.0328386 7.97384e-18 0.00061346
0.0349094 1.08357e-17 0.000611732
0.0369794 1.26886e-17 0.000599744
0.0390346 1.17518e-17 0.000566347
0.041 5.44363e-18 0.00054207
0 0 0
0.00179409 -0.000174204 0.000403327
0.00384975 -0.000273203 0.00057766
0.00592227 -0.000304465 0.000612303
0.00799471 -0.000308999 0.000617805
0.0100664 -0.000308481 0.000616076
0.0121372 -0.000307443 0.000614374
0.0142074 -0.000306837 0.00061344
0.0162774 -0.000306568 0.00061305
0.0183474 -0.00030647 0.000612913
0.0204173 -0.000306442 0.000612876
0.0224873 -0.000306442 0.000612878
0.0245572 -0.000306463 0.000612908
0.0266272 -0.000306515 0.000612987
0.0286972 -0.000306615 0.000613146
0.0307673 -0.000306721 0.000613373
0.0328375 -0.000306559 0.000613231
0.0349078 -0.000304652 0.000611265
0.0369783 -0.000297454 0.000599403
0.0390345 -0.000284719 0.00056707
0.041 -0.000276671 0.00054374
0 0 0
0.00182123 -0.00038915 0.00038915
0.00390692 -0.000565888 0.000565888
0.00595321 -0.000606967 0.000606967
0.00800816 -0.000615942 0.000615942
0.0100712 -0.000615577 0.000615577
0.0121386 -0.000614283 0.000614283
0.0142077 -0.000613447 0.000613447
0.0162775 -0.000613066 0.000613066
0.0183474 -0.000612923 0.000612923
0.0204173 -0.000612881 0.000612881
0.0224873 -0.000612881 0.000612881
0.0245572 -0.00061291 0.00061291
0.0266271 -0.000612983 0.000612983
0.0286968 -0.000613114 0.000613114
0.0307662 -0.000613238 0.000613238
0.0328349 -0.000612815 0.000612815
0.0349025 -0.000610278 0.000610278
0.0369732 -0.00059835 0.00059835
0.0390329 -0.000568626 0.000568626
0.041 -0.000547965 0.000547965
0 0 0
0.00198339 -0.000719394 0.000390836
0.00397866 -0.000858107 0.000566319
0.00598043 -0.0009088 0.000607391
0.0080175 -0.000919863 0.000616224
0.0100737 -0.000921191 0.000615675
0.012139 -0.000920462 0.000614321
0.0142077 -0.000919826 0.000613457
0.0162774 -0.000919496 0.000613068
0.0183473 -0.000919362 0.000612923
0.0204173 -0.000919319 0.000612881
0.0224873 -0.000919316 0.000612881
0.0245572 -0.000919341 0.000612911
0.0266271 -0.0009194 0.000612986
0.0286967 -0.000919488 0.000613122
0.0307656 -0.000919479 0.000613258
0.0328329 -0.000918857 0.000612852
0.034897 -0.000915461 0.000610264
0.0369585 -0.000906134 0.0005983
0.0390167 -0.000852872 0.000568833
0.041 -0.000809152 0.000548771
0 0 0
0.00195659 0.000749759 0.000179092
0.0039202 0.000875471 0.00027703
0.00594773 0.000917459 0.000306303
0.00800288 0.000922659 0.000309749
0.0100685 0.000922011 0.000308728
0.0121375 0.00092061 0.000307505
0.0142073 0.000919822 0.000306846
0.0162774 0.000919472 0.000306566
0.0183474 0.000919346 0.000306467
0.0204173 0.000919311 0.00030644
0.0224873 0.000919311 0.000306442
0.0245572 0.000919338 0.000306463
0.0266272 0.000919406 0.000306519
0.0286971 0.000919541 0.000306633
0.0307667 0.000919682 0.000306777
0.0328356 0.000919512 0.000306699
0.0349023 0.000916943 0.00030493
0.0369631 0.000908453 0.000297732
0.0390178 0.000850613 0.00028446
0.041 0.000801521 0.000276122
0 0 0
0.00179409 0.000403327 0.000174204
0.00384975 0.00057766 0.000273203
0.00592227 0.000612303 0.000304465
0.00799471 0.000617805 0.000308999
0.0100664 0.000616076 0.000308481
0.0121372 0.000614374 0.000307443
0.0142074 0.00061344 0.000306837
0.0162774 0.00061305 0.000306568
0.0183474 0.000612913 0.00030647
0.0204173 0.000612876 0.000306442
0.0224873 0.000612878 0.000306442
0.0245572 0.000612908 0.000306463
0.0266272 0.000612987 0.000306515
0.0286972 0.000613146 0.000306615
0.0307673 0.000613373 0.000306721
0.0328375 0.000613231 0.000306559
0.0349078 0.000611265 0.000304652
0.0369783 0.000599403 0.000297454
0.0390345 0.00056707 0.000284719
0.041 0.00054374 0.000276671
0 0 0
0.00176871 0.000180004 0.000180004
0.00379042 0.000278013 0.000278013
0.00589093 0.000306929 0.000306929
0.00798133 0.000309848 0.000309848
0.0100618 0.000308709 0.000308709
0.0121358 0.00030748 0.00030748
0.0142071 0.000306832 0.000306832
0.0162774 0.00030656 0.00030656
0.0183474 0.000306465 0.000306465
0.0204174 0.00030644 0.00030644
0.0224873 0.000306441 0.000306441
0.0245573 0.000306462 0.000306462
0.0266273 0.000306517 0.000306517
0.0286975 0.00030663 0.00030663
0.0307683 0.000306784 0.000306784
0.03284 0.000306758 0.000306758
0.0349133 0.000305059 0.000305059
0.0369833 0.000297783 0.000297783
0.0390354 0.000284049 0.000284049
0.041 0.000274988 0.000274988
0 0 0
0.0017616 -1.12531e-18 0.000182707
0.00377529 7.15772e-20 0.000280665
0.00587722 5.12914e-18 0.000308322
0.00797543 1.13496e-17 0.000310377
0.0100595 1.52147e-17 0.00030886
0.0121351 1.39386e-17 0.000307512
0.0142069 7.46653e-18 0.000306833
0.0162774 -4.33901e-20 0.000306557
0.0183474 -7.31651e-18 0.000306463
0.0204174 -1.06575e-17 0.000306438
0.0224873 -1.22687e-17 0.00030644
0.0245573 -1.14647e-17 0.000306462
0.0266273 -7.6934e-18 0.000306519
0.0286977 -1.62468e-18 0.000306641
0.0307688 4.002e-18 0.000306824
0.0328412 8.83471e-18 0.00030687
0.034915 1.15164e-17 0.000305271
0.0369843 1.26646e-17 0.00029791
0.0390352 1.19044e-17 0.000283705
0.041 5.23379e-18 0.000274223
0 0 0
0.00176871 -0.000180004 0.000180004
0.00379042 -0.000278013 0.000278013
0.00589093 -0.000306929 0.000306929
0.00798133 -0.000309848 0.000309848
0.0100618 -0.000308709 0.000308709
0.0121358 -0.00030748 0.00030748
0.0142071 -0.000306832 0.000306832
0.0162774 -0.00030656 0.00030656
0.0183474 -0.000306465 0.000306465
0.0204174 -0.00030644 0.00030644
0.0224873 -0.000306441 0.000306441
0.0245573 -0.000306462 0.000306462
0.0266273 -0.000306517 0.000306517
0.0286975 -0.00030663 0.00030663
0.0307683 -0.000306784 0.000306784
0.03284 -0.000306758 0.000306758
0.0349133 -0.000305059 0.000305059
0.0369833 -0.000297783 0.000297783
0.0390354 -0.000284049 0.000284049
0.041 -0.000274988 0.000274988
0 0 0
0.00179409 -0.000403327 0.000174204
0.00384975 -0.00057766 0.000273203
0.00592227 -0.000612303 0.000304465
0.00799471 -0.000617805 0.000308999
0.0100664 -0.000616076 0.000308481
0.0121372 -0.000614374 0.000307443
0.0142074 -0.00061344 0.000306837
0.0162774 -0.00061305 0.000306568
0.0183474 -0.000612913 0.00030647
0.0204173 -0.000612876 0.000306442
0.0224873 -0.000612878 0.000306442
0.0245572 -0.000612908 0.000306463
0.0266272 -0.000612987 0.000306515
0.0286972 -0.000613146 0.000306615
0.0307673 -0.000613373 0.000306721
0.0328375 -0.000613231 0.000306559
0.0349078 -0.000611265 0.000304652
0.0369783 -0.000599403 0.000297454
0.0390345 -0.00056707 0.000284719
0.041 -0.00054374 0.000276671
0 0 0
0.00195659 -0.000749759 0.000179092
0.0039202 -0.000875471 0.00027703
0.00594773 -0.000917459 0.000306303
0.00800288 -0.000922659 0.000309749
0.0100685 -0.000922011 0.000308728
0.0121375 -0.00092061 0.000307505
0.0142073 -0.000919822 0.000306846
0.0162774 -0.000919472 0.000306566
0.0183474 -0.000919346 0.000306467
0.0204173 -0.000919311 0.00030644
0.0224873 -0.000919311 0.000306442
0.0245572 -0.000919338 0.000306463
0.0266272 -0.000919406 0.000306519
0.0286971 -0.000919541 0.000306633
0.0307667 -0.000919682 0.000306777
0.0328356 -0.000919512 0.000306699
0.0349023 -0.000916943 0.00030493
0.0369631 -0.000908453 0.000297732
0.0390178 -0.000850613 0.00028446
0.041 -0.000801521 0.000276122
0 0 0
0.00194974 0.000758984 2.01343e-18
0.00390481 0.000884387 3.60169e-18
0.00593359 0.000921142 3.62167e-18
0.0079965 0.000924202 3.39095e-18
0.0100659 0.00092243 4.32871e-18
0.0121366 0.000920708 5.48446e-18
0.0142071 0.000919826 4.6969e-18
0.0162773 0.000919464 8.12806e-19
0.0183474 0.00091934 -4.56944e-18
0.0204173 0.000919307 -7.32785e-18
0.0224873 0.000919309 -7.61351e-18
0.0245573 0.000919337 -4.97762e-18
0.0266272 0.000919412 -8.34754e-19
0.0286973 0.00091957 -2.16047e-19
0.0307672 0.000919794 3.04172e-18
0.0328368 0.000919809 5.50492e-18
0.034904 0.000917633 5.15383e-18
0.0369639 0.000909058 4.89665e-18
0.0390175 0.000849596 3.82083e-18
0.041 0.000799002 3.69574e-18
0 0 0
0.00178643 0.000409622 8.98121e-18
0.00383501 0.000583401 1.3033e-17
0.00590898 0.000615172 1.07767e-17
0.00798878 0.000618867 7.99877e-18
0.0100641 0.000616389 1.08406e-17
0.0121364 0.000614438 1.60274e-17
0.0142072 0.000613443 1.52071e-17
0.0162774 0.000613043 2.66689e-18
0.0183474 0.000612908 -1.52364e-17
0.0204174 0.000612873 -2.64846e-17
0.0224873 0.000612876 -2.56292e-17
0.0245572 0.000612907 -1.5684e-17
0.0266272 0.00061299 -3.24743e-18
0.0286974 0.000613168 2.46251e-18
0.0307677 0.000613452 6.84566e-18
0.0328386 0.00061346 1.09658e-17
0.0349094 0.000611732 1.21229e-17
0.0369794 0.000599744 1.03243e-17
0.0390346 0.000566347 9.27029e-18
0.041 0.00054207 4.2265e-18
0 0 0
0.0017616 0.000182707 1.28875e-17
0.00377529 0.000280665 1.72567e-17
0.00587722 0.000308322 1.06221e-17
0.00797543 0.000310377 3.53186e-18
0.0100595 0.00030886 6.42093e-18
0.0121351 0.000307512 1.63216e-17
0.0142069 0.000306833 1.90825e-17
0.0162774 0.000306557 5.63103e-18
0.0183474 0.000306463 -1.63194e-17
0.0204174 0.000306438 -3.02702e-17
0.0224873 0.00030644 -2.80209e-17
0.0245573 0.000306462 -1.57176e-17
0.0266273 0.000306519 -2.16056e-18
0.0286977 0.000306641 1.81266e-18
0.0307688 0.000306824 4.7222e-18
0.0328412 0.00030687 8.65341e-18
0.034915 0.000305271 1.12463e-17
0.0369843 0.00029791 1.13664e-17
0.0390352 0.000283705 1.06149e-17
0.041 0.000274223 4.69528e-18
0 0 0
0.00175457 -2.0095e-18 1.28033e-17
0.00375998 -2.59994e-18 1.397e-17
0.00586329 -5.54195e-19 4.29795e-19
0.00796946 2.23564e-18 -1.33101e-17
0.0100572 3.61646e-18 -1.25377e-17
0.0121344 2.74474e-18 8.42125e-19
0.0142068 2.19545e-20 1.15349e-17
0.0162774 -1.14835e-18 8.33983e-18
0.0183474 -7.59269e-19 -4.33045e-18
0.0204174 2.10659e-18 -1.16298e-17
0.0224873 3.26843e-18 -7.5517e-18
0.0245573 2.45529e-18 2.19468e-18
0.0266274 1.63608e-18 7.52265e-18
0.0286979 1.14041e-18 1.58837e-18
0.0307692 5.93898e-19 -4.48997e-18
0.0328424 1.25033e-18 -4.38351e-18
0.0349168 1.35163e-18 -1.36652e-18
0.0369852 1.53822e-18 1.59029e-18
0.0390349 2.5026e-18 3.08575e-18
0.041 2.22361e-18 1.99917e-18
0 0 0
0.0017616 -0.000182707 9.3035e-18
0.00377529 -0.000280665 6.97251e-18
0.00587722 -0.000308322 -9.81015e-18
0.00797543 -0.000310377 -2.70344e-17
0.0100595 -0.00030886 -2.8821e-17
0.0121351 -0.000307512 -1.49774e-17
0.0142069 -0.000306833 1.67101e-18
0.0162774 -0.000306557 9.20107e-18
0.0183474 -0.000306463 8.92739e-18
0.0204174 -0.000306438 9.57003e-18
0.0224873 -0.00030644 1.5499e-17
0.0245573 -0.000306462 1.9775e-17
0.0266273 -0.000306519 1.57982e-17
0.0286977 -0.000306641 1.00474e-18
0.0307688 -0.000306824 -1.17219e-17
0.0328412 -0.00030687 -1.58698e-17
0.034915 -0.000305271 -1.3561e-17
0.0369843 -0.00029791 -7.681e-18
0.0390352 -0.000283705 -5.45181e-18
0.041 -0.000274223 -6.17866e-19
0 0 0
0.00178643 -0.000409622 5.22748e-18
0.00383501 -0.000583401 2.23116e-18
0.00590898 -0.000615172 -1.03519e-17
0.00798878 -0.000618867 -2.29584e-17
0.0100641 -0.000616389 -2.51651e-17
0.0121364 -0.000614438 -1.51609e-17
0.0142072 -0.000613443 -1.70414e-18
0.0162774 -0.000613043 7.30434e-18
0.0183474 -0.000612908 1.0825e-17
0.0204174 -0.000612873 1.3892e-17
0.0224873 -0.000612876 1.78401e-17
0.0245572 -0.000612907 1.86281e-17
0.0266272 -0.00061299 1.35475e-17
0.0286974 -0.000613168 -3.10891e-19
0.0307677 -0.000613452 -1.08355e-17
0.0328386 -0.00061346 -1.3989e-17
0.0349094 -0.000611732 -1.21489e-17
0.0369794 -0.000599744 -7.21629e-18
0.0390346 -0.000566347 -5.08217e-18
0.041 -0.00054207 -7.40485e-19
0 0 0
0.00194974 -0.000758984 9.88619e-19
0.00390481 -0.000884387 2.38257e-19
0.00593359 -0.000921142 -3.12257e-18
0.0079965 -0.000924202 -6.16121e-18
0.0100659 -0.00092243 -7.2161e-18
0.0121366 -0.000920708 -5.10291e-18
0.0142071 -0.000919826 -9.36934e-19
0.0162773 -0.000919464 2.37158e-18
0.0183474 -0.00091934 4.78115e-18
0.0204173 -0.000919307 5.89907e-18
0.0224873 -0.000919309 6.74682e-18
0.0245573 -0.000919337 6.59439e-18
0.0266272 -0.000919412 5.42618e-18
0.0286973 -0.00091957 8.90051e-19
0.0307672 -0.000919794 -2.35932e-18
0.0328368 -0.000919809 -2.83114e-18
0.034904 -0.000917633 -2.63865e-18
0.0369639 -0.000909058 -1.79784e-18
0.0390175 -0.000849596 -1.1528e-18
0.041 -0.000799002 -4.32468e-19
0 0 0
0.00195659 0.000749759 -0.000179092
0.0039202 0.000875471 -0.00027703
0.00594773 0.000917459 -0.000306303
0.00800288 0.000922659 -0.000309749
0.0100685 0.000922011 -0.000308728
0.0121375 0.00092061 -0.000307505
0.0142073 0.000919822 -0.000306846
0.0162774 0.000919472 -0.000306566
0.0183474 0.000919346 -0.000306467
0.0204173 0.000919311 -0.00030644
0.0224873 0.000919311 -0.000306442
0.0245572 0.000919338 -0.000306463
0.0266272 0.000919406 -0.000306519
0.0286971 0.000919541 -0.000306633
0.0307667 0.000919682 -0.000306777