<?xml version="1.0"?>
<VTKFile type="UnstructuredGrid" version="0.1" byte_order="LittleEndian">
<UnstructuredGrid>
<Piece NumberOfPoints="1029" NumberOfCells="720">
<Points>
<DataArray type="Float32" NumberOfComponents="3" format="ascii">
0 0 0
0.005 0 0
0.01 0 0
0.015 0 0
0.02 0 0
0.025 0 0
0.03 0 0
0.035 0 0
0.04 0 0
0.045 0 0
0.05 0 0
0.055 0 0
0.06 0 0
0.065 0 0
0.07 0 0
0.075 0 0
0.08 0 0
0.085 0 0
0.09 0 0
0.095 0 0
0.1 0 0
0 0.005 0
0.005 0.005 0
0.01 0.005 0
0.015 0.005 0
0.02 0.005 0
0.025 0.005 0
0.03 0.005 0
0.035 0.005 0
0.04 0.005 0
0.045 0.005 0
0.05 0.005 0
0.055 0.005 0
0.06 0.005 0
0.065 0.005 0
0.07 0.005 0
0.075 0.005 0
0.08 0.005 0
0.085 0.005 0
0.09 0.005 0
0.095 0.005 0
0.1 0.005 0
0 0.01 0
0.005 0.01 0
0.01 0.01 0
0.015 0.01 0
0.02 0.01 0
0.025 0.01 0
0.03 0.01 0
0.035 0.01 0
0.04 0.01 0
0.045 0.01 0
0.05 0.01 0
0.055 0.01 0
0.06 0.01 0
0.065 0.01 0
0.07 0.01 0
0.075 0.01 0
0.08 0.01 0
0.085 0.01 0
0.09 0.01 0
0.095 0.01 0
0.1 0.01 0
0 0.015 0
0.005 0.015 0
0.01 0.015 0
0.015 0.015 0
0.02 0.015 0
0.025 0.015 0
0.03 0.015 0
0.035 0.015 0
0.04 0.015 0
0.045 0.015 0
0.05 0.015 0
0.055 0.015 0
0.06 0.015 0
0.065 0.015 0
0.07 0.015 0
0.075 0.015 0
0.08 0.015 0
0.085 0.015 0
0.09 0.015 0
0.095 0.015 0
0.1 0.015 0
0 0.02 0
0.005 0.02 0
0.01 0.02 0
0.015 0.02 0
0.02 0.02 0
0.025 0.02 0
0.03 0.02 0
0.035 0.02 0
0.04 0.02 0
0.045 0.02 0
0.05 0.02 0
0.055 0.02 0
0.06 0.02 0
0.065 0.02 0
0.07 0.02 0
0.075 0.02 0
0.08 0.02 0
0.085 0.02 0
0.09 0.02 0
0.095 0.02 0
0.1 0.02 0
0 0.025 0
0.005 0.025 0
0.01 0.025 0
0.015 0.025 0
0.02 0.025 0
0.025 0.025 0
0.03 0.025 0
0.035 0.025 0
0.04 0.025 0
0.045 0.025 0
0.05 0.025 0
0.055 0.025 0
0.06 0.025 0
0.065 0.025 0
0.07 0.025 0
0.075 0.025 0
0.08 0.025 0
0.085 0.025 0
0.09 0.025 0
0.095 0.025 0
0.1 0.025 0
0 0.03 0
0.005 0.03 0
0.01 0.03 0
0.015 0.03 0
0.02 0.03 0
0.025 0.03 0
0.03 0.03 0
0.035 0.03 0
0.04 0.03 0
0.045 0.03 0
0.05 0.03 0
0.055 0.03 0
0.06 0.03 0
0.065 0.03 0
0.07 0.03 0
0.075 0.03 0
0.08 0.03 0
0.085 0.03 0
0.09 0.03 0
0.095 0.03 0
0.1 0.03 0
0 0 0.005
0.005 0 0.005
0.01 0 0.005
0.015 0 0.005
0.02 0 0.005
0.025 0 0.005
0.03 0 0.005
0.035 0 0.005
0.04 0 0.005
0.045 0 0.005
0.05 0 0.005
0.055 0 0.005
0.06 0 0.005
0.065 0 0.005
0.07 0 0.005
0.075 0 0.005
0.08 0 0.005
0.085 0 0.005
0.09 0 0.005
0.095 0 0.005
0.1 0 0.005
0 0.005 0.005
0.005 0.005 0.005
0.01 0.005 0.005
0.015 0.005 0.005
0.02 0.005 0.005
0.025 0.005 0.005
0.03 0.005 0.005
0.035 0.005 0.005
0.04 0.005 0.005
0.045 0.005 0.005
0.05 0.005 0.005
0.055 0.005 0.005
0.06 0.005 0.005
0.065 0.005 0.005
0.07 0.005 0.005
0.075 0.005 0.005
0.08 0.005 0.005
0.085 0.005 0.005
0.09 0.005 0.005
0.095 0.005 0.005
0.1 0.005 0.005
0 0.01 0.005
0.005 0.01 0.005
0.01 0.01 0.005
0.015 0.01 0.005
0.02 0.01 0.005
0.025 0.01 0.005
0.03 0.01 0.005
0.035 0.01 0.005
0.04 0.01 0.005
0.045 0.01 0.005
0.05 0.01 0.005
0.055 0.01 0.005
0.06 0.01 0.005
0.065 0.01 0.005
0.07 0.01 0.005
0.075 0.01 0.005
0.08 0.01 0.005
0.085 0.01 0.005
0.09 0.01 0.005
0.095 0.01 0.005
0.1 0.01 0.005
0 0.015 0.005
0.005 0.015 0.005
0.01 0.015 0.005
0.015 0.015 0.005
0.02 0.015 0.005
0.025 0.015 0.005
0.03 0.015 0.005
0.035 0.015 0.005
0.04 0.015 0.005
0.045 0.015 0.005
0.05 0.015 0.005
0.055 0.015 0.005
0.06 0.015 0.005
0.065 0.015 0.005
0.07 0.015 0.005
0.075 0.015 0.005
0.08 0.015 0.005
0.085 0.015 0.005
0.09 0.015 0.005
0.095 0.015 0.005
0.1 0.015 0.005
0 0.02 0.005
0.005 0.02 0.005
0.01 0.02 0.005
0.015 0.02 0.005
0.02 0.02 0.005
0.025 0.02 0.005
0.03 0.02 0.005
0.035 0.02 0.005
0.04 0.02 0.005
0.045 0.02 0.005
0.05 0.02 0.005
0.055 0.02 0.005
0.06 0.02 0.005
0.065 0.02 0.005
0.07 0.02 0.005
0.075 0.02 0.005
0.08 0.02 0.005
0.085 0.02 0.005
0.09 0.02 0.005
0.095 0.02 0.005
0.1 0.02 0.005
0 0.025 0.005
0.005 0.025 0.005
0.01 0.025 0.005
0.015 0.025 0.005
0.02 0.025 0.005
0.025 0.025 0.005
0.03 0.025 0.005
0.035 0.025 0.005
0.04 0.025 0.005
0.045 0.025 0.005
0.05 0.025 0.005
0.055 0.025 0.005
0.06 0.025 0.005
0.065 0.025 0.005
0.07 0.025 0.005
0.075 0.025 0.005
0.08 0.025 0.005
0.085 0.025 0.005
0.09 0.025 0.005
0.095 0.025 0.005
0.1 0.025 0.005
0 0.03 0.005
0.005 0.03 0.005
0.01 0.03 0.005
0.015 0.03 0.005
0.02 0.03 0.005
0.025 0.03 0.005
0.03 0.03 0.005
0.035 0.03 0.005
0.04 0.03 0.005
0.045 0.03 0.005
0.05 0.03 0.005
0.055 0.03 0.005
0.06 0.03 0.005
0.065 0.03 0.005
0.07 0.03 0.005
0.075 0.03 0.005
0.08 0.03 0.005
0.085 0.03 0.005
0.09 0.03 0.005
0.095 0.03 0.005
0.1 0.03 0.005
0 0 0.01
0.005 0 0.01
0.01 0 0.01
0.015 0 0.01
0.02 0 0.01
0.025 0 0.01
0.03 0 0.01
0.035 0 0.01
0.04 0 0.01
0.045 0 0.01
0.05 0 0.01
0.055 0 0.01
0.06 0 0.01
0.065 0 0.01
0.07 0 0.01
0.075 0 0.01
0.08 0 0.01
0.085 0 0.01
0.09 0 0.01
0.095 0 0.01
0.1 0 0.01
0 0.005 0.01
0.005 0.005 0.01
0.01 0.005 0.01
0.015 0.005 0.01
0.02 0.005 0.01
0.025 0.005 0.01
0.03 0.005 0.01
0.035 0.005 0.01
0.04 0.005 0.01
0.045 0.005 0.01
0.05 0.005 0.01
0.055 0.005 0.01
0.06 0.005 0.01
0.065 0.005 0.01
0.07 0.005 0.01
0.075 0.005 0.01
0.08 0.005 0.01
0.085 0.005 0.01
0.09 0.005 0.01
0.095 0.005 0.01
0.1 0.005 0.01
0 0.01 0.01
0.005 0.01 0.01
0.01 0.01 0.01
0.015 0.01 0.01
0.02 0.01 0.01
0.025 0.01 0.01
0.03 0.01 0.01
0.035 0.01 0.01
0.04 0.01 0.01
0.045 0.01 0.01
0.05 0.01 0.01
0.055 0.01 0.01
0.06 0.01 0.01
0.065 0.01 0.01
0.07 0.01 0.01
0.075 0.01 0.01
0.08 0.01 0.01
0.085 0.01 0.01
0.09 0.01 0.01
0.095 0.01 0.01
0.1 0.01 0.01
0 0.015 0.01
0.005 0.015 0.01
0.01 0.015 0.01
0.015 0.015 0.01
0.02 0.015 0.01
0.025 0.015 0.01
0.03 0.015 0.01
0.035 0.015 0.01
0.04 0.015 0.01
0.045 0.015 0.01
0.05 0.015 0.01
0.055 0.015 0.01
0.06 0.015 0.01
0.065 0.015 0.01
0.07 0.015 0.01
0.075 0.015 0.01
0.08 0.015 0.01
0.085 0.015 0.01
0.09 0.015 0.01
0.095 0.015 0.01
0.1 0.015 0.01
0 0.02 0.01
0.005 0.02 0.01
0.01 0.02 0.01
0.015 0.02 0.01
0.02 0.02 0.01
0.025 0.02 0.01
0.03 0.02 0.01
0.035 0.02 0.01
0.04 0.02 0.01
0.045 0.02 0.01
0.05 0.02 0.01
0.055 0.02 0.01
0.06 0.02 0.01
0.065 0.02 0.01
0.07 0.02 0.01
0.075 0.02 0.01
0.08 0.02 0.01
0.085 0.02 0.01
0.09 0.02 0.01
0.095 0.02 0.01
0.1 0.02 0.01
0 0.025 0.01
0.005 0.025 0.01
0.01 0.025 0.01
0.015 0.025 0.01
0.02 0.025 0.01
0.025 0.025 0.01
0.03 0.025 0.01
0.035 0.025 0.01
0.04 0.025 0.01
0.045 0.025 0.01
0.05 0.025 0.01
0.055 0.025 0.01
0.06 0.025 0.01
0.065 0.025 0.01
0.07 0.025 0.01
0.075 0.025 0.01
0.08 0.025 0.01
0.085 0.025 0.01
0.09 0.025 0.01
0.095 0.025 0.01
0.1 0.025 0.01
0 0.03 0.01
0.005 0.03 0.01
0.01 0.03 0.01
0.015 0.03 0.01
0.02 0.03 0.01
0.025 0.03 0.01
0.03 0.03 0.01
0.035 0.03 0.01
0.04 0.03 0.01
0.045 0.03 0.01
0.05 0.03 0.01
0.055 0.03 0.01
0.06 0.03 0.01
0.065 0.03 0.01
0.07 0.03 0.01
0.075 0.03 0.01
0.08 0.03 0.01
0.085 0.03 0.01
0.09 0.03 0.01
0.095 0.03 0.01
0.1 0.03 0.01
0 0 0.015
0.005 0 0.015
0.01 0 0.015
0.015 0 0.015
0.02 0 0.015
0.025 0 0.015
0.03 0 0.015
0.035 0 0.015
0.04 0 0.015
0.045 0 0.015
0.05 0 0.015
0.055 0 0.015
0.06 0 0.015
0.065 0 0.015
0.07 0 0.015
0.075 0 0.015
0.08 0 0.015
0.085 0 0.015
0.09 0 0.015
0.095 0 0.015
0.1 0 0.015
0 0.005 0.015
0.005 0.005 0.015
0.01 0.005 0.015
0.015 0.005 0.015
0.02 0.005 0.015
0.025 0.005 0.015
0.03 0.005 0.015
0.035 0.005 0.015
0.04 0.005 0.015
0.045 0.005 0.015
0.05 0.005 0.015
0.055 0.005 0.015
0.06 0.005 0.015
0.065 0.005 0.015
0.07 0.005 0.015
0.075 0.005 0.015
0.08 0.005 0.015
0.085 0.005 0.015
0.09 0.005 0.015
0.095 0.005 0.015
0.1 0.005 0.015
0 0.01 0.015
0.005 0.01 0.015
0.01 0.01 0.015
0.015 0.01 0.015
0.02 0.01 0.015
0.025 0.01 0.015
0.03 0.01 0.015
0.035 0.01 0.015
0.04 0.01 0.015
0.045 0.01 0.015
0.05 0.01 0.015
0.055 0.01 0.015
0.06 0.01 0.015
0.065 0.01 0.015
0.07 0.01 0.015
0.075 0.01 0.015
0.08 0.01 0.015
0.085 0.01 0.015
0.09 0.01 0.015
0.095 0.01 0.015
0.1 0.01 0.015
0 0.015 0.015
0.005 0.015 0.015
0.01 0.015 0.015
0.015 0.015 0.015
0.02 0.015 0.015
0.025 0.015 0.015
0.03 0.015 0.015
0.035 0.015 0.015
0.04 0.015 0.015
0.045 0.015 0.015
0.05 0.015 0.015
0.055 0.015 0.015
0.06 0.015 0.015
0.065 0.015 0.015
0.07 0.015 0.015
0.075 0.015 0.015
0.08 0.015 0.015
0.085 0.015 0.015
0.09 0.015 0.015
0.095 0.015 0.015
0.1 0.015 0.015
0 0.02 0.015
0.005 0.02 0.015
0.01 0.02 0.015
0.015 0.02 0.015
0.02 0.02 0.015
0.025 0.02 0.015
0.03 0.02 0.015
0.035 0.02 0.015
0.04 0.02 0.015
0.045 0.02 0.015
0.05 0.02 0.015
0.055 0.02 0.015
0.06 0.02 0.015
0.065 0.02 0.015
0.07 0.02 0.015
0.075 0.02 0.015
0.08 0.02 0.015
0.085 0.02 0.015
0.09 0.02 0.015
0.095 0.02 0.015
0.1 0.02 0.015
0 0.025 0.015
0.005 0.025 0.015
0.01 0.025 0.015
0.015 0.025 0.015
0.02 0.025 0.015
0.025 0.025 0.015
0.03 0.025 0.015
0.035 0.025 0.015
0.04 0.025 0.015
0.045 0.025 0.015
0.05 0.025 0.015
0.055 0.025 0.015
0.06 0.025 0.015
0.065 0.025 0.015
0.07 0.025 0.015
0.075 0.025 0.015
0.08 0.025 0.015
0.085 0.025 0.015
0.09 0.025 0.015
0.095 0.025 0.015
0.1 0.025 0.015
0 0.03 0.015
0.005 0.03 0.015
0.01 0.03 0.015
0.015 0.03 0.015
0.02 0.03 0.015
0.025 0.03 0.015
0.03 0.03 0.015
0.035 0.03 0.015
0.04 0.03 0.015
0.045 0.03 0.015
0.05 0.03 0.015
0.055 0.03 0.015
0.06 0.03 0.015
0.065 0.03 0.015
0.07 0.03 0.015
0.075 0.03 0.015
0.08 0.03 0.015
0.085 0.03 0.015
0.09 0.03 0.015
0.095 0.03 0.015
0.1 0.03 0.015
0 0 0.02
0.005 0 0.02
0.01 0 0.02
0.015 0 0.02
0.02 0 0.02
0.025 0 0.02
0.03 0 0.02
0.035 0 0.02
0.04 0 0.02
0.045 0 0.02
0.05 0 0.02
0.055 0 0.02
0.06 0 0.02
0.065 0 0.02
0.07 0 0.02
0.075 0 0.02
0.08 0 0.02
0.085 0 0.02
0.09 0 0.02
0.095 0 0.02
0.1 0 0.02
0 0.005 0.02
0.005 0.005 0.02
0.01 0.005 0.02
0.015 0.005 0.02
0.02 0.005 0.02
0.025 0.005 0.02
0.03 0.005 0.02
0.035 0.005 0.02
0.04 0.005 0.02
0.045 0.005 0.02
0.05 0.005 0.02
0.055 0.005 0.02
0.06 0.005 0.02
0.065 0.005 0.02
0.07 0.005 0.02
0.075 0.005 0.02
0.08 0.005 0.02
0.085 0.005 0.02
0.09 0.005 0.02
0.095 0.005 0.02
0.1 0.005 0.02
0 0.01 0.02
0.005 0.01 0.02
0.01 0.01 0.02
0.015 0.01 0.02
0.02 0.01 0.02
0.025 0.01 0.02
0.03 0.01 0.02
0.035 0.01 0.02
0.04 0.01 0.02
0.045 0.01 0.02
0.05 0.01 0.02
0.055 0.01 0.02
0.06 0.01 0.02
0.065 0.01 0.02
0.07 0.01 0.02
0.075 0.01 0.02
0.08 0.01 0.02
0.085 0.01 0.02
0.09 0.01 0.02
0.095 0.01 0.02
[...]
<PointData Vectors="Displacement">
<DataArray type="Float32" Name="Displacement" NumberOfComponents="3" format="ascii">
0 0 0
0.00131235 0.000394036 0.000394036
0.00243781 0.000482887 0.000482887
0.00358123 0.000523078 0.000523078
0.00475691 0.000533268 0.000533268
0.0059529 0.0005352 0.0005352
0.00715925 0.000534736 0.000534736
0.00836994 0.000534099 0.000534099
0.00958216 0.000533693 0.000533693
0.0107948 0.0005335 0.0005335
0.0120075 0.000533434 0.000533434
0.0132202 0.000533444 0.000533444
0.0144328 0.000533519 0.000533519
0.0156451 0.000533664 0.000533664
0.0168568 0.000533837 0.000533837
0.0180665 0.000533722 0.000533722
0.0192723 0.000532347 0.000532347
0.0204711 0.000526255 0.000526255
0.0216611 0.000510782 0.000510782
0.022863 0.000446551 0.000446551
0.024 0.000397424 0.000397424
0 0 0
0.0012102 0.000210712 0.000396949
0.00238527 0.000320527 0.000489753
0.00355805 0.000350815 0.000525123
0.00474821 0.000358398 0.000534172
0.00595021 0.000358403 0.000535436
0.00715869 0.000357246 0.00053478
0.00836997 0.000356357 0.000534088
0.00958227 0.000355888 0.000533678
0.0107949 0.000355687 0.00053349
0.0120075 0.000355626 0.000533428
0.0132202 0.00035564 0.000533439
0.0144328 0.000355726 0.000533514
0.0156452 0.00035591 0.000533666
0.0168571 0.0003562 0.00053387
0.0180679 0.000356419 0.000533863
0.0192762 0.000355612 0.000532726
0.0204807 0.00035122 0.000527393
0.0216825 0.00033393 0.000512872
0.0228855 0.000296498 0.000444438
0.024 0.000272185 0.000390302
0 0 0
0.00119451 9.5691e-05 0.0004093
0.00234887 0.000154882 0.000498772
0.00353497 0.000176603 0.000530395
0.00473667 0.000180413 0.000536229
0.00594551 0.000179991 0.000536142
0.00715708 0.000178992 0.00053495
0.00836955 0.000178326 0.0005341
0.00958223 0.000177992 0.000533658
0.0107949 0.000177855 0.000533472
0.0120076 0.000177815 0.000533415
0.0132202 0.000177826 0.00053343
0.0144328 0.000177887 0.00053351
0.0156455 0.000178022 0.000533687
0.0168579 0.000178253 0.000533978
0.0180699 0.000178481 0.000534212
0.0192807 0.000178169 0.000533671
0.0204885 0.000175072 0.00052924
0.0216891 0.000164879 0.000515071
0.0228873 0.000148374 0.000441289
0.024 0.000138418 0.000381129
0 0 0
0.00119049 -3.3438e-19 0.000412921
0.00233994 -7.97061e-19 0.000503128
0.00352562 -7.97768e-19 0.000532641
0.00473172 -2.40233e-19 0.000537303
0.00594329 1.95585e-19 0.000536507
0.00715627 1.31889e-18 0.000535053
0.00836931 2.50099e-18 0.000534113
0.00958218 3.18706e-18 0.000533651
0.0107949 3.74178e-18 0.000533464
0.0120076 3.04642e-18 0.00053341
0.0132202 2.21603e-18 0.000533426
0.0144329 1.51872e-18 0.00053351
0.0156456 6.65504e-19 0.0005337
0.0168583 3.87953e-20 0.000534036
0.0180709 -9.19707e-20 0.000534396
0.0192826 -8.55988e-20 0.0005341
0.0204908 5.33858e-19 0.000530044
0.0216902 7.96027e-19 0.000515556
0.0228871 2.78482e-19 0.000439906
0.024 1.50469e-18 0.000378127
0 0 0
0.00119451 -9.5691e-05 0.0004093
0.00234887 -0.000154882 0.000498772
0.00353497 -0.000176603 0.000530395
0.00473667 -0.000180413 0.000536229
0.00594551 -0.000179991 0.000536142
0.00715708 -0.000178992 0.00053495
0.00836955 -0.000178326 0.0005341
0.00958223 -0.000177992 0.000533658
0.0107949 -0.000177855 0.000533472
0.0120076 -0.000177815 0.000533415
0.0132202 -0.000177826 0.00053343
0.0144328 -0.000177887 0.00053351
0.0156455 -0.000178022 0.000533687
0.0168579 -0.000178253 0.000533978
0.0180699 -0.000178481 0.000534212
0.0192807 -0.000178169 0.000533671
0.0204885 -0.000175072 0.00052924
0.0216891 -0.000164879 0.000515071
0.0228873 -0.000148374 0.000441289
0.024 -0.000138418 0.000381129
0 0 0
0.0012102 -0.000210712 0.000396949
0.00238527 -0.000320527 0.000489753
0.00355805 -0.000350815 0.000525123
0.00474821 -0.000358398 0.000534172
0.00595021 -0.000358403 0.000535436
0.00715869 -0.000357246 0.00053478
0.00836997 -0.000356357 0.000534088
0.00958227 -0.000355888 0.000533678
0.0107949 -0.000355687 0.00053349
0.0120075 -0.000355626 0.000533428
0.0132202 -0.00035564 0.000533439
0.0144328 -0.000355726 0.000533514
0.0156452 -0.00035591 0.000533666
0.0168571 -0.0003562 0.00053387
0.0180679 -0.000356419 0.000533863
0.0192762 -0.000355612 0.000532726
0.0204807 -0.00035122 0.000527393
0.0216825 -0.00033393 0.000512872
0.0228855 -0.000296498 0.000444438
0.024 -0.000272185 0.000390302
0 0 0
0.00131235 -0.000394036 0.000394036
0.00243781 -0.000482887 0.000482887
0.00358123 -0.000523078 0.000523078
0.00475691 -0.000533268 0.000533268
0.0059529 -0.0005352 0.0005352
0.00715925 -0.000534736 0.000534736
0.00836994 -0.000534099 0.000534099
0.00958216 -0.000533693 0.000533693
0.0107948 -0.0005335 0.0005335
0.0120075 -0.000533434 0.000533434
0.0132202 -0.000533444 0.000533444
0.0144328 -0.000533519 0.000533519
0.0156451 -0.000533664 0.000533664
0.0168568 -0.000533837 0.000533837
0.0180665 -0.000533722 0.000533722
0.0192723 -0.000532347 0.000532347
0.0204711 -0.000526255 0.000526255
0.0216611 -0.000510782 0.000510782
0.022863 -0.000446551 0.000446551
0.024 -0.000397424 0.000397424
0 0 0
0.0012102 0.000396949 0.000210712
0.00238527 0.000489753 0.000320527
0.00355805 0.000525123 0.000350815
0.00474821 0.000534172 0.000358398
0.00595021 0.000535436 0.000358403
0.00715869 0.00053478 0.000357246
0.00836997 0.000534088 0.000356357
0.00958227 0.000533678 0.000355888
0.0107949 0.00053349 0.000355687
0.0120075 0.000533428 0.000355626
0.0132202 0.000533439 0.00035564
0.0144328 0.000533514 0.000355726
0.0156452 0.000533666 0.00035591
0.0168571 0.00053387 0.0003562
0.0180679 0.000533863 0.000356419
0.0192762 0.000532726 0.000355612
0.0204807 0.000527393 0.00035122
0.0216825 0.000512872 0.00033393
0.0228855 0.000444438 0.000296498
0.024 0.000390302 0.000272185
0 0 0
0.0011043 0.000209598 0.000209598
0.00233348 0.000319983 0.000319983
0.00353642 0.000350494 0.000350494
0.00474018 0.000358164 0.000358164
0.00594785 0.000358311 0.000358311
0.00715826 0.000357209 0.000357209
0.00837004 0.000356346 0.000356346
0.0095824 0.000355886 0.000355886
0.010795 0.000355688 0.000355688
0.0120076 0.000355626 0.000355626
0.0132202 0.00035564 0.00035564
0.0144328 0.000355724 0.000355724
0.0156452 0.000355904 0.000355904
0.0168575 0.000356184 0.000356184
0.0180691 0.00035638 0.00035638
0.0192799 0.000355547 0.000355547
0.02049 0.000351199 0.000351199
0.0217048 0.000333922 0.000333922
0.0229096 0.000296291 0.000296291
0.024 0.00027146 0.00027146
0 0 0
0.00108805 9.33424e-05 0.000214893
0.00229755 0.000152778 0.000325632
0.00351427 0.000175383 0.000353593
0.00472941 0.000179848 0.000359451
0.0059435 0.000179771 0.000358729
0.00715679 0.000178925 0.000357308
0.00836967 0.000178312 0.000356349
0.00958236 0.000177993 0.000355872
0.010795 0.000177859 0.000355676
0.0120076 0.000177818 0.000355618
0.0132202 0.000177828 0.000355634
0.0144328 0.000177886 0.000355721
0.0156455 0.000178012 0.000355915
0.0168582 0.000178217 0.000356248
0.0180711 0.000178382 0.000356601
0.0192842 0.000177953 0.000356126
0.0204978 0.000174706 0.00035234
0.0217122 0.000164613 0.0003348
0.0229123 0.000148806 0.000294189
0.024 0.000139274 0.000266477
0 0 0
0.00108349 -1.53984e-18 0.00021737
0.00228882 -2.78286e-18 0.000328282
0.00350539 -3.12405e-18 0.000355227
0.00472477 -2.74431e-18 0.000360171
0.00594145 -9.39006e-19 0.000358983
0.00715604 1.6477e-18 0.000357375
0.00836944 4.68413e-18 0.000356357
0.00958232 7.63131e-18 0.000355866
0.010795 8.16108e-18 0.00035567
0.0120076 8.06329e-18 0.000355614
0.0132202 5.55348e-18 0.000355632
0.0144328 2.53104e-18 0.000355721
0.0156456 5.57468e-20 0.000355924
0.0168585 -1.57551e-18 0.000356289
0.0180719 -2.36443e-18 0.000356727
0.019286 -1.62769e-18 0.000356435
0.0205001 -1.61024e-18 0.000352855
0.0217137 -1.33469e-18 0.000335037
0.0229125 -1.80296e-18 0.000293224
0.024 5.7445e-19 0.000264509
0 0 0
0.00108805 -9.33424e-05 0.000214893
0.00229755 -0.000152778 0.000325632
0.00351427 -0.000175383 0.000353593
0.00472941 -0.000179848 0.000359451
0.0059435 -0.000179771 0.000358729
0.00715679 -0.000178925 0.000357308
0.00836967 -0.000178312 0.000356349
0.00958236 -0.000177993 0.000355872
0.010795 -0.000177859 0.000355676
0.0120076 -0.000177818 0.000355618
0.0132202 -0.000177828 0.000355634
0.0144328 -0.000177886 0.000355721
0.0156455 -0.000178012 0.000355915
0.0168582 -0.000178217 0.000356248
0.0180711 -0.000178382 0.000356601
0.0192842 -0.000177953 0.000356126
0.0204978 -0.000174706 0.00035234
0.0217122 -0.000164613 0.0003348
0.0229123 -0.000148806 0.000294189
0.024 -0.000139274 0.000266477
0 0 0
0.0011043 -0.000209598 0.000209598
0.00233348 -0.000319983 0.000319983
0.00353642 -0.000350494 0.000350494
0.00474018 -0.000358164 0.000358164
0.00594785 -0.000358311 0.000358311
0.00715826 -0.000357209 0.000357209
0.00837004 -0.000356346 0.000356346
0.0095824 -0.000355886 0.000355886
0.010795 -0.000355688 0.000355688
0.0120076 -0.000355626 0.000355626
0.0132202 -0.00035564 0.00035564
0.0144328 -0.000355724 0.000355724
0.0156452 -0.000355904 0.000355904
0.0168575 -0.000356184 0.000356184
0.0180691 -0.00035638 0.00035638
0.0192799 -0.000355547 0.000355547
0.02049 -0.000351199 0.000351199
0.0217048 -0.000333922 0.000333922
0.0229096 -0.000296291 0.000296291
0.024 -0.00027146 0.00027146
0 0 0
0.0012102 -0.000396949 0.000210712
0.00238527 -0.000489753 0.000320527
0.00355805 -0.000525123 0.000350815
0.00474821 -0.000534172 0.000358398
0.00595021 -0.000535436 0.000358403
0.00715869 -0.00053478 0.000357246
0.00836997 -0.000534088 0.000356357
0.00958227 -0.000533678 0.000355888
0.0107949 -0.00053349 0.000355687
0.0120075 -0.000533428 0.000355626
0.0132202 -0.000533439 0.00035564
0.0144328 -0.000533514 0.000355726
0.0156452 -0.000533666 0.00035591
0.0168571 -0.00053387 0.0003562
0.0180679 -0.000533863 0.000356419
0.0192762 -0.000532726 0.000355612
0.0204807 -0.000527393 0.00035122
0.0216825 -0.000512872 0.00033393
0.0228855 -0.000444438 0.000296498
0.024 -0.000390302 0.000272185
0 0 0
0.00119451 0.0004093 9.5691e-05
0.00234887 0.000498772 0.000154882
0.00353497 0.000530395 0.000176603
0.00473667 0.000536229 0.000180413
0.00594551 0.000536142 0.000179991
0.00715708 0.00053495 0.000178992
0.00836955 0.0005341 0.000178326
0.00958223 0.000533658 0.000177992
0.0107949 0.000533472 0.000177855
0.0120076 0.000533415 0.000177815
0.0132202 0.00053343 0.000177826
0.0144328 0.00053351 0.000177887
0.0156455 0.000533687 0.000178022
0.0168579 0.000533978 0.000178253
0.0180699 0.000534212 0.000178481
0.0192807 0.000533671 0.000178169
0.0204885 0.00052924 0.000175072
0.0216891 0.000515071 0.000164879
0.0228873 0.000441289 0.000148374
0.024 0.000381129 0.000138418
0 0 0
0.00108805 0.000214893 9.33424e-05
0.00229755 0.000325632 0.000152778
0.00351427 0.000353593 0.000175383
0.00472941 0.000359451 0.000179848
0.0059435 0.000358729 0.000179771
0.00715679 0.000357308 0.000178925
0.00836967 0.000356349 0.000178312
0.00958236 0.000355872 0.000177993
0.010795 0.000355676 0.000177859
0.0120076 0.000355618 0.000177818
0.0132202 0.000355634 0.000177828
0.0144328 0.000355721 0.000177886
0.0156455 0.000355915 0.000178012
0.0168582 0.000356248 0.000178217
0.0180711 0.000356601 0.000178382
0.0192842 0.000356126 0.000177953
0.0204978 0.00035234 0.000174706
0.0217122 0.0003348 0.000164613
0.0229123 0.000294189 0.000148806
0.024 0.000266477 0.000139274
0 0 0
0.00107267 9.5442e-05 9.5442e-05
0.00226085 0.000154916 0.000154916
0.00349182 0.000176727 0.000176727
0.00471863 0.000180416 0.000180416
0.00593924 0.000179957 0.000179957
0.00715538 0.000178967 0.000178967
0.00836932 0.000178313 0.000178313
0.00958233 0.000177987 0.000177987
0.010795 0.000177853 0.000177853
0.0120076 0.000177814 0.000177814
0.0132202 0.000177825 0.000177825
0.0144329 0.000177884 0.000177884
0.0156457 0.000178017 0.000178017
0.0168589 0.000178246 0.000178246
0.018073 0.000178482 0.000178482
0.0192885 0.000178215 0.000178215
0.020506 0.000175141 0.000175141
0.0217195 0.00016482 0.00016482
0.0229142 0.000147939 0.000147939
0.024 0.000137365 0.000137365
0 0 0
0.00106837 -1.28203e-18 9.64652e-05
0.00225203 -2.57264e-18 0.000156107
0.00348272 -3.01746e-18 0.000177486
0.00471396 -2.51033e-18 0.000180765
0.0059372 -1.08418e-18 0.000180079
0.00715465 1.70296e-18 0.000179
0.00836911 4.96435e-18 0.000178317
0.00958229 7.91312e-18 0.000177984
0.010795 8.68582e-18 0.000177851
0.0120076 8.34414e-18 0.000177812
0.0132202 5.54787e-18 0.000177824
0.0144329 1.77395e-18 0.000177884
0.0156458 -7.15534e-19 0.000178021
0.0168592 -1.81722e-18 0.000178266
0.0180739 -2.0714e-18 0.000178545
0.0192904 -1.33671e-18 0.000178362
0.0205084 -8.90318e-19 0.000175365
0.0217208 -1.49266e-18 0.000164888
0.0229141 -1.9061e-18 0.000147489
0.024 2.52021e-19 0.000136473
0 0 0
0.00107267 -9.5442e-05 9.5442e-05
0.00226085 -0.000154916 0.000154916
0.00349182 -0.000176727 0.000176727
0.00471863 -0.000180416 0.000180416
0.00593924 -0.000179957 0.000179957
0.00715538 -0.000178967 0.000178967
0.00836932 -0.000178313 0.000178313
0.00958233 -0.000177987 0.000177987
0.010795 -0.000177853 0.000177853
0.0120076 -0.000177814 0.000177814
0.0132202 -0.000177825 0.000177825
0.0144329 -0.000177884 0.000177884
0.0156457 -0.000178017 0.000178017
0.0168589 -0.000178246 0.000178246
0.018073 -0.000178482 0.000178482
0.0192885 -0.000178215 0.000178215
0.020506 -0.000175141 0.000175141
0.0217195 -0.00016482 0.00016482
0.0229142 -0.000147939 0.000147939
0.024 -0.000137365 0.000137365
0 0 0
0.00108805 -0.000214893 9.33424e-05
0.00229755 -0.000325632 0.000152778
0.00351427 -0.000353593 0.000175383
0.00472941 -0.000359451 0.000179848
0.0059435 -0.000358729 0.000179771
0.00715679 -0.000357308 0.000178925
0.00836967 -0.000356349 0.000178312
0.00958236 -0.000355872 0.000177993
0.010795 -0.000355676 0.000177859
0.0120076 -0.000355618 0.000177818
0.0132202 -0.000355634 0.000177828
0.0144328 -0.000355721 0.000177886
0.0156455 -0.000355915 0.000178012
0.0168582 -0.000356248 0.000178217
0.0180711 -0.000356601 0.000178382
0.0192842 -0.000356126 0.000177953
0.0204978 -0.00035234 0.000174706
0.0217122 -0.0003348 0.000164613
0.0229123 -0.000294189 0.000148806
0.024 -0.000266477 0.000139274
0 0 0
0.00119451 -0.0004093 9.5691e-05
0.00234887 -0.000498772 0.000154882
0.00353497 -0.000530395 0.000176603
0.00473667 -0.000536229 0.000180413
0.00594551 -0.000536142 0.000179991
0.00715708 -0.00053495 0.000178992
0.00836955 -0.0005341 0.000178326
0.00958223 -0.000533658 0.000177992
0.0107949 -0.000533472 0.000177855
0.0120076 -0.000533415 0.000177815
0.0132202 -0.00053343 0.000177826
0.0144328 -0.00053351 0.000177887
0.0156455 -0.000533687 0.000178022
0.0168579 -0.000533978 0.000178253
0.0180699 -0.000534212 0.000178481
0.0192807 -0.000533671 0.000178169
0.0204885 -0.00052924 0.000175072
0.0216891 -0.000515071 0.000164879
0.0228873 -0.000441289 0.000148374
0.024 -0.000381129 0.000138418
0 0 0
0.00119049 0.000412921 -2.88191e-19
0.00233994 0.000503128 -1.8508e-19
0.00352562 0.000532641 -4.07384e-19
0.00473172 0.000537303 -2.0351e-20
0.00594329 0.000536507 6.74941e-19
0.00715627 0.000535053 1.37353e-18
0.00836931 0.000534113 2.51345e-18
0.00958218 0.000533651 3.39992e-18
0.0107949 0.000533464 3.01184e-18
0.0120076 0.00053341 3.07793e-18
0.0132202 0.000533426 1.98974e-18
0.0144329 0.00053351 1.06609e-18
0.0156456 0.0005337 1.16739e-18
0.0168583 0.000534036 -5.71722e-19
0.0180709 0.000534396 5.79525e-19
0.0192826 0.0005341 1.96995e-18
0.0204908 0.000530044 1.55153e-18
0.0216902 0.000515556 9.38369e-19
0.0228871 0.000439906 -3.33013e-21
0.024 0.000378127 1.85692e-18
0 0 0
0.00108349 0.00021737 -3.43569e-20
0.00228882 0.000328282 -2.2745e-19
0.00350539 0.000355227 -9.10218e-19
0.00472477 0.000360171 -9.96371e-19
0.00594145 0.000358983 -2.97324e-19
0.00715604 0.000357375 1.9884e-18
0.00836944 0.000356357 4.86359e-18
0.00958232 0.000355866 6.88708e-18
0.010795 0.00035567 7.59378e-18
0.0120076 0.000355614 5.8485e-18
0.0132202 0.000355632 2.25089e-18
0.0144328 0.000355721 -1.76544e-18
0.0156456 0.000355924 -3.00196e-18
0.0168585 0.000356289 -3.79733e-18
0.0180719 0.000356727 -1.63058e-18
0.019286 0.000356435 1.03187e-18
0.0205001 0.000352855 1.2213e-18
0.0217137 0.000335037 4.30381e-19
0.0229125 0.000293224 -5.15527e-20
0.024 0.000264509 1.1188e-18
0 0 0
0.00106837 9.64652e-05 3.64051e-19
0.00225203 0.000156107 2.01753e-19
0.00348272 0.000177486 -6.02057e-19
0.00471396 0.000180765 -1.46582e-18
0.0059372 0.000180079 -1.15812e-18
0.00715465 0.000179 1.06585e-18
0.00836911 0.000178317 4.83301e-18
0.00958229 0.000177984 8.17641e-18
0.010795 0.000177851 9.33998e-18
0.0120076 0.000177812 7.03886e-18
0.0132202 0.000177824 2.43244e-18
0.0144329 0.000177884 -2.74133e-18
0.0156458 0.000178021 -4.06789e-18
0.0168592 0.000178266 -4.44762e-18
0.0180739 0.000178545 -1.40086e-18
0.0192904 0.000178362 1.77036e-18
0.0205084 0.000175365 1.55689e-18
0.0217208 0.000164888 -2.98469e-19
0.0229141 0.000147489 -1.3856e-18
0.024 0.000136473 8.71329e-19
0 0 0
0.00106411 5.60662e-19 2.09622e-18
0.00224317 1.08554e-18 2.97055e-18
0.00347353 8.3061e-19 2.16023e-18
0.00470924 2.15095e-19 -1.20363e-19
0.00593517 -1.45788e-19 -1.77386e-18
0.00715393 -1.07765e-19 -1.95589e-18
0.0083689 5.80602e-19 2.73419e-19
0.00958226 1.69469e-18 3.00501e-18
0.010795 2.10448e-18 4.09165e-18
0.0120076 2.52745e-18 3.55368e-18
0.0132202 1.79265e-18 5.28051e-19
0.0144329 2.8427e-19 -2.17574e-18
0.0156459 7.50831e-19 -1.55413e-18
0.0168596 1.58182e-18 -6.31973e-20
0.0180747 2.73947e-18 3.47378e-18
0.0192923 3.89585e-18 5.63714e-18
0.0205108 3.10171e-18 4.24259e-18
0.0217221 1.10082e-18 1.85722e-19
0.0229139 7.58455e-19 -1.71501e-18
0.024 1.98222e-18 4.71703e-19
0 0 0
0.00106837 -9.64652e-05 3.32287e-18
0.00225203 -0.000156107 5.01176e-18
0.00348272 -0.000177486 4.49138e-18
0.00471396 -0.000180765 1.45687e-18
0.0059372 -0.000180079 -1.73536e-18
0.00715465 -0.000179 -3.92807e-18
0.00836911 -0.000178317 -4.16231e-18
0.00958229 -0.000177984 -2.7978e-18
0.010795 -0.000177851 -1.48224e-18
0.0120076 -0.000177812 -7.71858e-19
0.0132202 -0.000177824 -1.29173e-18
0.0144329 -0.000177884 -1.05995e-18
0.0156458 -0.000178021 1.70012e-18
0.0168592 -0.000178266 4.32597e-18
0.0180739 -0.000178545 7.80426e-18
0.0192904 -0.000178362 8.99185e-18
0.0205084 -0.000175365 6.35077e-18
0.0217208 -0.000164888 1.40357e-18
0.0229141 -0.000147489 -1.56694e-18
0.024 -0.000136473 8.87989e-19
0 0 0
0.00108349 -0.00021737 2.42378e-18
0.00228882 -0.000328282 3.76892e-18
0.00350539 -0.000355227 3.38543e-18
0.00472477 -0.000360171 1.30862e-18
0.00594145 -0.000358983 -1.3848e-18
0.00715604 -0.000357375 -3.30581e-18
0.00836944 -0.000356357 -3.7756e-18
0.00958232 -0.000355866 -2.907e-18
0.010795 -0.00035567 -1.93275e-18
0.0120076 -0.000355614 -7.59753e-19
0.0132202 -0.000355632 -5.67662e-19
0.0144328 -0.000355721 -5.32284e-20
0.0156456 -0.000355924 2.56777e-18
0.0168585 -0.000356289 4.01102e-18
0.0180719 -0.000356727 6.51919e-18
0.019286 -0.000356435 7.32232e-18
0.0205001 -0.000352855 4.72448e-18
0.0217137 -0.000335037 1.34288e-18
0.0229125 -0.000293224 -1.31922e-18
0.024 -0.000264509 4.67533e-20
0 0 0
0.00119049 -0.000412921 8.43283e-19
0.00233994 -0.000503128 1.43968e-18
0.00352562 -0.000532641 1.41791e-18
0.00473172 -0.000537303 1.09371e-18
0.00594329 -0.000536507 9.76423e-20
0.00715627 -0.000535053 -4.59669e-19
0.00836931 -0.000534113 -6.96977e-19
0.00958218 -0.000533651 -7.08925e-19
0.0107949 -0.000533464 -4.26955e-19
0.0120076 -0.00053341 -1.89475e-19
0.0132202 -0.000533426 -2.70225e-19
0.0144329 -0.00053351 1.69288e-19
0.0156456 -0.0005337 1.31021e-18
0.0168583 -0.000534036 1.57978e-18
0.0180709 -0.000534396 2.55053e-18
0.0192826 -0.0005341 3.30742e-18
0.0204908 -0.000530044 2.59454e-18
0.0216902 -0.000515556 1.14967e-18
0.0228871 -0.000439906 8.23025e-19
0.024 -0.000378127 -5.8578e-20
0 0 0
0.00119451 0.0004093 -9.5691e-05
0.00234887 0.000498772 -0.000154882
0.00353497 0.000530395 -0.000176603
0.00473667 0.000536229 -0.000180413
0.00594551 0.000536142 -0.000179991
0.00715708 0.00053495 -0.000178992
0.00836955 0.0005341 -0.000178326
0.00958223 0.000533658 -0.000177992
0.0107949 0.000533472 -0.000177855
0.0120076 0.000533415 -0.000177815
0.0132202 0.00053343 -0.000177826
0.0144328 0.00053351 -0.000177887