<?xml version="1.0"?>
<VTKFile type="UnstructuredGrid" version="0.1" byte_order="LittleEndian">
<UnstructuredGrid>
<Piece NumberOfPoints="1029" NumberOfCells="720">
<Points>
<DataArray type="Float32" NumberOfComponents="3" format="ascii">
0 0 0
0.005 0 0
0.01 0 0
0.015 0 0
0.02 0 0
0.025 0 0
0.03 0 0
0.035 0 0
0.04 0 0
0.045 0 0
0.05 0 0
0.055 0 0
0.06 0 0
0.065 0 0
0.07 0 0
0.075 0 0
0.08 0 0
0.085 0 0
0.09 0 0
0.095 0 0
0.1 0 0
0 0.005 0
0.005 0.005 0
0.01 0.005 0
0.015 0.005 0
0.02 0.005 0
0.025 0.005 0
0.03 0.005 0
0.035 0.005 0
0.04 0.005 0
0.045 0.005 0
0.05 0.005 0
0.055 0.005 0
0.06 0.005 0
0.065 0.005 0
0.07 0.005 0
0.075 0.005 0
0.08 0.005 0
0.085 0.005 0
0.09 0.005 0
0.095 0.005 0
0.1 0.005 0
0 0.01 0
0.005 0.01 0
0.01 0.01 0
0.015 0.01 0
0.02 0.01 0
0.025 0.01 0
0.03 0.01 0
0.035 0.01 0
0.04 0.01 0
0.045 0.01 0
0.05 0.01 0
0.055 0.01 0
0.06 0.01 0
0.065 0.01 0
0.07 0.01 0
0.075 0.01 0
0.08 0.01 0
0.085 0.01 0
0.09 0.01 0
0.095 0.01 0
0.1 0.01 0
0 0.015 0
0.005 0.015 0
0.01 0.015 0
0.015 0.015 0
0.02 0.015 0
0.025 0.015 0
0.03 0.015 0
0.035 0.015 0
0.04 0.015 0
0.045 0.015 0
0.05 0.015 0
0.055 0.015 0
0.06 0.015 0
0.065 0.015 0
0.07 0.015 0
0.075 0.015 0
0.08 0.015 0
0.085 0.015 0
0.09 0.015 0
0.095 0.015 0
0.1 0.015 0
0 0.02 0
0.005 0.02 0
0.01 0.02 0
0.015 0.02 0
0.02 0.02 0
0.025 0.02 0
0.03 0.02 0
0.035 0.02 0
0.04 0.02 0
0.045 0.02 0
0.05 0.02 0
0.055 0.02 0
0.06 0.02 0
0.065 0.02 0
0.07 0.02 0
0.075 0.02 0
0.08 0.02 0
0.085 0.02 0
0.09 0.02 0
0.095 0.02 0
0.1 0.02 0
0 0.025 0
0.005 0.025 0
0.01 0.025 0
0.015 0.025 0
0.02 0.025 0
0.025 0.025 0
0.03 0.025 0
0.035 0.025 0
0.04 0.025 0
0.045 0.025 0
0.05 0.025 0
0.055 0.025 0
0.06 0.025 0
0.065 0.025 0
0.07 0.025 0
0.075 0.025 0
0.08 0.025 0
0.085 0.025 0
0.09 0.025 0
0.095 0.025 0
0.1 0.025 0
0 0.03 0
0.005 0.03 0
0.01 0.03 0
0.015 0.03 0
0.02 0.03 0
0.025 0.03 0
0.03 0.03 0
0.035 0.03 0
0.04 0.03 0
0.045 0.03 0
0.05 0.03 0
0.055 0.03 0
0.06 0.03 0
0.065 0.03 0
0.07 0.03 0
0.075 0.03 0
0.08 0.03 0
0.085 0.03 0
0.09 0.03 0
0.095 0.03 0
0.1 0.03 0
0 0 0.005
0.005 0 0.005
0.01 0 0.005
0.015 0 0.005
0.02 0 0.005
0.025 0 0.005
0.03 0 0.005
0.035 0 0.005
0.04 0 0.005
0.045 0 0.005
0.05 0 0.005
0.055 0 0.005
0.06 0 0.005
0.065 0 0.005
0.07 0 0.005
0.075 0 0.005
0.08 0 0.005
0.085 0 0.005
0.09 0 0.005
0.095 0 0.005
0.1 0 0.005
0 0.005 0.005
0.005 0.005 0.005
0.01 0.005 0.005
0.015 0.005 0.005
0.02 0.005 0.005
0.025 0.005 0.005
0.03 0.005 0.005
0.035 0.005 0.005
0.04 0.005 0.005
0.045 0.005 0.005
0.05 0.005 0.005
0.055 0.005 0.005
0.06 0.005 0.005
0.065 0.005 0.005
0.07 0.005 0.005
0.075 0.005 0.005
0.08 0.005 0.005
0.085 0.005 0.005
0.09 0.005 0.005
0.095 0.005 0.005
0.1 0.005 0.005
0 0.01 0.005
0.005 0.01 0.005
0.01 0.01 0.005
0.015 0.01 0.005
0.02 0.01 0.005
0.025 0.01 0.005
0.03 0.01 0.005
0.035 0.01 0.005
0.04 0.01 0.005
0.045 0.01 0.005
0.05 0.01 0.005
0.055 0.01 0.005
0.06 0.01 0.005
0.065 0.01 0.005
0.07 0.01 0.005
0.075 0.01 0.005
0.08 0.01 0.005
0.085 0.01 0.005
0.09 0.01 0.005
0.095 0.01 0.005
0.1 0.01 0.005
0 0.015 0.005
0.005 0.015 0.005
0.01 0.015 0.005
0.015 0.015 0.005
0.02 0.015 0.005
0.025 0.015 0.005
0.03 0.015 0.005
0.035 0.015 0.005
0.04 0.015 0.005
0.045 0.015 0.005
0.05 0.015 0.005
0.055 0.015 0.005
0.06 0.015 0.005
0.065 0.015 0.005
0.07 0.015 0.005
0.075 0.015 0.005
0.08 0.015 0.005
0.085 0.015 0.005
0.09 0.015 0.005
0.095 0.015 0.005
0.1 0.015 0.005
0 0.02 0.005
0.005 0.02 0.005
0.01 0.02 0.005
0.015 0.02 0.005
0.02 0.02 0.005
0.025 0.02 0.005
0.03 0.02 0.005
0.035 0.02 0.005
0.04 0.02 0.005
0.045 0.02 0.005
0.05 0.02 0.005
0.055 0.02 0.005
0.06 0.02 0.005
0.065 0.02 0.005
0.07 0.02 0.005
0.075 0.02 0.005
0.08 0.02 0.005
0.085 0.02 0.005
0.09 0.02 0.005
0.095 0.02 0.005
0.1 0.02 0.005
0 0.025 0.005
0.005 0.025 0.005
0.01 0.025 0.005
0.015 0.025 0.005
0.02 0.025 0.005
0.025 0.025 0.005
0.03 0.025 0.005
0.035 0.025 0.005
0.04 0.025 0.005
0.045 0.025 0.005
0.05 0.025 0.005
0.055 0.025 0.005
0.06 0.025 0.005
0.065 0.025 0.005
0.07 0.025 0.005
0.075 0.025 0.005
0.08 0.025 0.005
0.085 0.025 0.005
0.09 0.025 0.005
0.095 0.025 0.005
0.1 0.025 0.005
0 0.03 0.005
0.005 0.03 0.005
0.01 0.03 0.005
0.015 0.03 0.005
0.02 0.03 0.005
0.025 0.03 0.005
0.03 0.03 0.005
0.035 0.03 0.005
0.04 0.03 0.005
0.045 0.03 0.005
0.05 0.03 0.005
0.055 0.03 0.005
0.06 0.03 0.005
0.065 0.03 0.005
0.07 0.03 0.005
0.075 0.03 0.005
0.08 0.03 0.005
0.085 0.03 0.005
0.09 0.03 0.005
0.095 0.03 0.005
0.1 0.03 0.005
0 0 0.01
0.005 0 0.01
0.01 0 0.01
0.015 0 0.01
0.02 0 0.01
0.025 0 0.01
0.03 0 0.01
0.035 0 0.01
0.04 0 0.01
0.045 0 0.01
0.05 0 0.01
0.055 0 0.01
0.06 0 0.01
0.065 0 0.01
0.07 0 0.01
0.075 0 0.01
0.08 0 0.01
0.085 0 0.01
0.09 0 0.01
0.095 0 0.01
0.1 0 0.01
0 0.005 0.01
0.005 0.005 0.01
0.01 0.005 0.01
0.015 0.005 0.01
0.02 0.005 0.01
0.025 0.005 0.01
0.03 0.005 0.01
0.035 0.005 0.01
0.04 0.005 0.01
0.045 0.005 0.01
0.05 0.005 0.01
0.055 0.005 0.01
0.06 0.005 0.01
0.065 0.005 0.01
0.07 0.005 0.01
0.075 0.005 0.01
0.08 0.005 0.01
0.085 0.005 0.01
0.09 0.005 0.01
0.095 0.005 0.01
0.1 0.005 0.01
0 0.01 0.01
0.005 0.01 0.01
0.01 0.01 0.01
0.015 0.01 0.01
0.02 0.01 0.01
0.025 0.01 0.01
0.03 0.01 0.01
0.035 0.01 0.01
0.04 0.01 0.01
0.045 0.01 0.01
0.05 0.01 0.01
0.055 0.01 0.01
0.06 0.01 0.01
0.065 0.01 0.01
0.07 0.01 0.01
0.075 0.01 0.01
0.08 0.01 0.01
0.085 0.01 0.01
0.09 0.01 0.01
0.095 0.01 0.01
0.1 0.01 0.01
0 0.015 0.01
0.005 0.015 0.01
0.01 0.015 0.01
0.015 0.015 0.01
0.02 0.015 0.01
0.025 0.015 0.01
0.03 0.015 0.01
0.035 0.015 0.01
0.04 0.015 0.01
0.045 0.015 0.01
0.05 0.015 0.01
0.055 0.015 0.01
0.06 0.015 0.01
0.065 0.015 0.01
0.07 0.015 0.01
0.075 0.015 0.01
0.08 0.015 0.01
0.085 0.015 0.01
0.09 0.015 0.01
0.095 0.015 0.01
0.1 0.015 0.01
0 0.02 0.01
0.005 0.02 0.01
0.01 0.02 0.01
0.015 0.02 0.01
0.02 0.02 0.01
0.025 0.02 0.01
0.03 0.02 0.01
0.035 0.02 0.01
0.04 0.02 0.01
0.045 0.02 0.01
0.05 0.02 0.01
0.055 0.02 0.01
0.06 0.02 0.01
0.065 0.02 0.01
0.07 0.02 0.01
0.075 0.02 0.01
0.08 0.02 0.01
0.085 0.02 0.01
0.09 0.02 0.01
0.095 0.02 0.01
0.1 0.02 0.01
0 0.025 0.01
0.005 0.025 0.01
0.01 0.025 0.01
0.015 0.025 0.01
0.02 0.025 0.01
0.025 0.025 0.01
0.03 0.025 0.01
0.035 0.025 0.01
0.04 0.025 0.01
0.045 0.025 0.01
0.05 0.025 0.01
0.055 0.025 0.01
0.06 0.025 0.01
0.065 0.025 0.01
0.07 0.025 0.01
0.075 0.025 0.01
0.08 0.025 0.01
0.085 0.025 0.01
0.09 0.025 0.01
0.095 0.025 0.01
0.1 0.025 0.01
0 0.03 0.01
0.005 0.03 0.01
0.01 0.03 0.01
0.015 0.03 0.01
0.02 0.03 0.01
0.025 0.03 0.01
0.03 0.03 0.01
0.035 0.03 0.01
0.04 0.03 0.01
0.045 0.03 0.01
0.05 0.03 0.01
0.055 0.03 0.01
0.06 0.03 0.01
0.065 0.03 0.01
0.07 0.03 0.01
0.075 0.03 0.01
0.08 0.03 0.01
0.085 0.03 0.01
0.09 0.03 0.01
0.095 0.03 0.01
0.1 0.03 0.01
0 0 0.015
0.005 0 0.015
0.01 0 0.015
0.015 0 0.015
0.02 0 0.015
0.025 0 0.015
0.03 0 0.015
0.035 0 0.015
0.04 0 0.015
0.045 0 0.015
0.05 0 0.015
0.055 0 0.015
0.06 0 0.015
0.065 0 0.015
0.07 0 0.015
0.075 0 0.015
0.08 0 0.015
0.085 0 0.015
0.09 0 0.015
0.095 0 0.015
0.1 0 0.015
0 0.005 0.015
0.005 0.005 0.015
0.01 0.005 0.015
0.015 0.005 0.015
0.02 0.005 0.015
0.025 0.005 0.015
0.03 0.005 0.015
0.035 0.005 0.015
0.04 0.005 0.015
0.045 0.005 0.015
0.05 0.005 0.015
0.055 0.005 0.015
0.06 0.005 0.015
0.065 0.005 0.015
0.07 0.005 0.015
0.075 0.005 0.015
0.08 0.005 0.015
0.085 0.005 0.015
0.09 0.005 0.015
0.095 0.005 0.015
0.1 0.005 0.015
0 0.01 0.015
0.005 0.01 0.015
0.01 0.01 0.015
0.015 0.01 0.015
0.02 0.01 0.015
0.025 0.01 0.015
0.03 0.01 0.015
0.035 0.01 0.015
0.04 0.01 0.015
0.045 0.01 0.015
0.05 0.01 0.015
0.055 0.01 0.015
0.06 0.01 0.015
0.065 0.01 0.015
0.07 0.01 0.015
0.075 0.01 0.015
0.08 0.01 0.015
0.085 0.01 0.015
0.09 0.01 0.015
0.095 0.01 0.015
0.1 0.01 0.015
0 0.015 0.015
0.005 0.015 0.015
0.01 0.015 0.015
0.015 0.015 0.015
0.02 0.015 0.015
0.025 0.015 0.015
0.03 0.015 0.015
0.035 0.015 0.015
0.04 0.015 0.015
0.045 0.015 0.015
0.05 0.015 0.015
0.055 0.015 0.015
0.06 0.015 0.015
0.065 0.015 0.015
0.07 0.015 0.015
0.075 0.015 0.015
0.08 0.015 0.015
0.085 0.015 0.015
0.09 0.015 0.015
0.095 0.015 0.015
0.1 0.015 0.015
0 0.02 0.015
0.005 0.02 0.015
0.01 0.02 0.015
0.015 0.02 0.015
0.02 0.02 0.015
0.025 0.02 0.015
0.03 0.02 0.015
0.035 0.02 0.015
0.04 0.02 0.015
0.045 0.02 0.015
0.05 0.02 0.015
0.055 0.02 0.015
0.06 0.02 0.015
0.065 0.02 0.015
0.07 0.02 0.015
0.075 0.02 0.015
0.08 0.02 0.015
0.085 0.02 0.015
0.09 0.02 0.015
0.095 0.02 0.015
0.1 0.02 0.015
0 0.025 0.015
0.005 0.025 0.015
0.01 0.025 0.015
0.015 0.025 0.015
0.02 0.025 0.015
0.025 0.025 0.015
0.03 0.025 0.015
0.035 0.025 0.015
0.04 0.025 0.015
0.045 0.025 0.015
0.05 0.025 0.015
0.055 0.025 0.015
0.06 0.025 0.015
0.065 0.025 0.015
0.07 0.025 0.015
0.075 0.025 0.015
0.08 0.025 0.015
0.085 0.025 0.015
0.09 0.025 0.015
0.095 0.025 0.015
0.1 0.025 0.015
0 0.03 0.015
0.005 0.03 0.015
0.01 0.03 0.015
0.015 0.03 0.015
0.02 0.03 0.015
0.025 0.03 0.015
0.03 0.03 0.015
0.035 0.03 0.015
0.04 0.03 0.015
0.045 0.03 0.015
0.05 0.03 0.015
0.055 0.03 0.015
0.06 0.03 0.015
0.065 0.03 0.015
0.07 0.03 0.015
0.075 0.03 0.015
0.08 0.03 0.015
0.085 0.03 0.015
0.09 0.03 0.015
0.095 0.03 0.015
0.1 0.03 0.015
0 0 0.02
0.005 0 0.02
0.01 0 0.02
0.015 0 0.02
0.02 0 0.02
0.025 0 0.02
0.03 0 0.02
0.035 0 0.02
0.04 0 0.02
0.045 0 0.02
0.05 0 0.02
0.055 0 0.02
0.06 0 0.02
0.065 0 0.02
0.07 0 0.02
0.075 0 0.02
0.08 0 0.02
0.085 0 0.02
0.09 0 0.02
0.095 0 0.02
0.1 0 0.02
0 0.005 0.02
0.005 0.005 0.02
0.01 0.005 0.02
0.015 0.005 0.02
0.02 0.005 0.02
0.025 0.005 0.02
0.03 0.005 0.02
0.035 0.005 0.02
0.04 0.005 0.02
0.045 0.005 0.02
0.05 0.005 0.02
0.055 0.005 0.02
0.06 0.005 0.02
0.065 0.005 0.02
0.07 0.005 0.02
0.075 0.005 0.02
0.08 0.005 0.02
0.085 0.005 0.02
0.09 0.005 0.02
0.095 0.005 0.02
0.1 0.005 0.02
0 0.01 0.02
0.005 0.01 0.02
0.01 0.01 0.02
0.015 0.01 0.02
0.02 0.01 0.02
0.025 0.01 0.02
0.03 0.01 0.02
0.035 0.01 0.02
0.04 0.01 0.02
0.045 0.01 0.02
0.05 0.01 0.02
0.055 0.01 0.02
0.06 0.01 0.02
0.065 0.01 0.02
0.07 0.01 0.02
0.075 0.01 0.02
0.08 0.01 0.02
0.085 0.01 0.02
0.09 0.01 0.02
0.095 0.01 0.02
[...]
<PointData Vectors="Displacement">
<DataArray type="Float32" Name="Displacement" NumberOfComponents="3" format="ascii">
0 0 0
0.00224165 0.000705503 0.000705503
0.00426114 0.000839008 0.000839008
0.00632184 0.000898999 0.000898999
0.00843931 0.000911877 0.000911877
0.0105868 0.000914251 0.000914251
0.0127481 0.000913768 0.000913768
0.0149143 0.000913201 0.000913201
0.0170821 0.000912874 0.000912874
0.0192502 0.000912734 0.000912734
0.0214185 0.000912685 0.000912685
0.0235867 0.000912679 0.000912679
0.0257548 0.0009127 0.0009127
0.0279229 0.000912747 0.000912747
0.0300906 0.00091281 0.00091281
0.0322574 0.000912738 0.000912738
0.0344221 0.000912055 0.000912055
0.0365824 0.000908543 0.000908543
0.0387365 0.000899695 0.000899695
0.0408945 0.000856662 0.000856662
0.043 0.000822799 0.000822799
0 0 0
0.00209047 0.000387176 0.000719245
0.004189 0.000560383 0.000852165
0.00629244 0.000602016 0.000902088
0.0084291 0.00061137 0.000913001
0.0105839 0.000611085 0.000914419
0.0127475 0.000609849 0.000913766
0.0149143 0.000609026 0.000913171
0.0170821 0.000608648 0.000912856
0.0192503 0.000608503 0.000912725
0.0214185 0.000608458 0.000912682
0.0235867 0.000608455 0.000912677
0.0257548 0.00060848 0.000912697
0.0279229 0.000608543 0.000912745
0.0300908 0.000608654 0.000912817
0.0322581 0.000608754 0.000912801
0.034424 0.000608359 0.000912261
0.0365873 0.000606043 0.000909336
0.0387485 0.000595672 0.000901648
0.0409072 0.000570683 0.000855209
0.043 0.000554086 0.000816975
0 0 0
0.00206422 0.000177368 0.000760312
0.00413142 0.00027398 0.000874145
0.00625996 0.00030343 0.000911711
0.00841446 0.0003072 0.000915732
0.0105786 0.000306379 0.000915048
0.0127458 0.00030525 0.0009138
0.0149139 0.000304626 0.000913117
0.0170821 0.000304355 0.000912814
0.0192503 0.000304258 0.000912705
0.0214185 0.00030423 0.000912672
0.0235867 0.000304229 0.000912671
0.0257549 0.000304247 0.000912691
0.027923 0.000304293 0.000912743
0.0300911 0.000304386 0.000912848
0.0322591 0.000304498 0.000912964
0.0344263 0.000304401 0.00091287
0.0365918 0.000302817 0.000910869
0.0387522 0.00029658 0.000904156
0.0409078 0.000285437 0.000852802
0.043 0.000278723 0.000808849
0 0 0
0.00205764 -8.10254e-19 0.000772506
0.00411612 -8.31739e-19 0.000885773
0.00624586 -7.4165e-19 0.000915991
0.00840805 -5.92566e-19 0.000917255
0.010576 -1.11079e-18 0.000915376
0.012745 -1.36724e-18 0.000913836
0.0149137 -1.25257e-18 0.000913094
0.0170821 -1.64539e-19 0.000912796
0.0192503 -9.3983e-19 0.000912695
0.0214185 -1.48277e-18 0.000912668
0.0235867 -2.89582e-18 0.000912668
0.0257549 -3.9738e-18 0.000912689
0.0279231 -2.83522e-18 0.000912743
0.0300913 -2.07307e-18 0.000912866
0.0322595 -1.13752e-18 0.000913056
0.0344274 -7.37536e-19 0.000913153
0.0365932 -1.40341e-18 0.000911607
0.0387528 -1.7732e-18 0.000904809
0.0409074 -2.37335e-18 0.000851705
0.043 2.36741e-18 0.000806191
0 0 0
0.00206422 -0.000177368 0.000760312
0.00413142 -0.00027398 0.000874145
0.00625996 -0.00030343 0.000911711
0.00841446 -0.0003072 0.000915732
0.0105786 -0.000306379 0.000915048
0.0127458 -0.00030525 0.0009138
0.0149139 -0.000304626 0.000913117
0.0170821 -0.000304355 0.000912814
0.0192503 -0.000304258 0.000912705
0.0214185 -0.00030423 0.000912672
0.0235867 -0.000304229 0.000912671
0.0257549 -0.000304247 0.000912691
0.027923 -0.000304293 0.000912743
0.0300911 -0.000304386 0.000912848
0.0322591 -0.000304498 0.000912964
0.0344263 -0.000304401 0.00091287
0.0365918 -0.000302817 0.000910869
0.0387522 -0.00029658 0.000904156
0.0409078 -0.000285437 0.000852802
0.043 -0.000278723 0.000808849
0 0 0
0.00209047 -0.000387176 0.000719245
0.004189 -0.000560383 0.000852165
0.00629244 -0.000602016 0.000902088
0.0084291 -0.00061137 0.000913001
0.0105839 -0.000611085 0.000914419
0.0127475 -0.000609849 0.000913766
0.0149143 -0.000609026 0.000913171
0.0170821 -0.000608648 0.000912856
0.0192503 -0.000608503 0.000912725
0.0214185 -0.000608458 0.000912682
0.0235867 -0.000608455 0.000912677
0.0257548 -0.00060848 0.000912697
0.0279229 -0.000608543 0.000912745
0.0300908 -0.000608654 0.000912817
0.0322581 -0.000608754 0.000912801
0.034424 -0.000608359 0.000912261
0.0365873 -0.000606043 0.000909336
0.0387485 -0.000595672 0.000901648
0.0409072 -0.000570683 0.000855209
0.043 -0.000554086 0.000816975
0 0 0
0.00224165 -0.000705503 0.000705503
0.00426114 -0.000839008 0.000839008
0.00632184 -0.000898999 0.000898999
0.00843931 -0.000911877 0.000911877
0.0105868 -0.000914251 0.000914251
0.0127481 -0.000913768 0.000913768
0.0149143 -0.000913201 0.000913201
0.0170821 -0.000912874 0.000912874
0.0192502 -0.000912734 0.000912734
0.0214185 -0.000912685 0.000912685
0.0235867 -0.000912679 0.000912679
0.0257548 -0.0009127 0.0009127
0.0279229 -0.000912747 0.000912747
0.0300906 -0.00091281 0.00091281
0.0322574 -0.000912738 0.000912738
0.0344221 -0.000912055 0.000912055
0.0365824 -0.000908543 0.000908543
0.0387365 -0.000899695 0.000899695
0.0408945 -0.000856662 0.000856662
0.043 -0.000822799 0.000822799
0 0 0
0.00209047 0.000719245 0.000387176
0.004189 0.000852165 0.000560383
0.00629244 0.000902088 0.000602016
0.0084291 0.000913001 0.00061137
0.0105839 0.000914419 0.000611085
0.0127475 0.000913766 0.000609849
0.0149143 0.000913171 0.000609026
0.0170821 0.000912856 0.000608648
0.0192503 0.000912725 0.000608503
0.0214185 0.000912682 0.000608458
0.0235867 0.000912677 0.000608455
0.0257548 0.000912697 0.00060848
0.0279229 0.000912745 0.000608543
0.0300908 0.000912817 0.000608654
0.0322581 0.000912801 0.000608754
0.034424 0.000912261 0.000608359
0.0365873 0.000909336 0.000606043
0.0387485 0.000901648 0.000595672
0.0409072 0.000855209 0.000570683
0.043 0.000816975 0.000554086
0 0 0
0.00193238 0.000385445 0.000385445
0.00412034 0.000560527 0.000560527
0.00626621 0.000601615 0.000601615
0.00841999 0.000611077 0.000611077
0.0105814 0.000610983 0.000610983
0.012747 0.000609811 0.000609811
0.0149143 0.000609017 0.000609017
0.0170822 0.000608646 0.000608646
0.0192503 0.000608503 0.000608503
0.0214185 0.000608459 0.000608459
0.0235867 0.000608456 0.000608456
0.0257548 0.00060848 0.00060848
0.0279229 0.000608541 0.000608541
0.0300909 0.000608647 0.000608647
0.0322586 0.000608737 0.000608737
0.0344257 0.000608329 0.000608329
0.0365919 0.000606103 0.000606103
0.0387611 0.000595822 0.000595822
0.0409213 0.000570357 0.000570357
0.043 0.00055286 0.00055286
0 0 0
0.00190569 0.000171315 0.0004053
0.00406512 0.000269771 0.000575733
0.00623634 0.000301461 0.000607901
0.00840682 0.000306446 0.000612992
0.0105766 0.000306158 0.000611379
0.0127455 0.000305206 0.00060983
0.0149139 0.000304626 0.000608977
0.0170822 0.000304361 0.000608618
0.0192503 0.000304262 0.000608489
0.0214185 0.000304232 0.000608452
0.0235867 0.00030423 0.000608452
0.0257548 0.000304247 0.000608476
0.027923 0.000304291 0.000608539
0.0300912 0.000304374 0.000608667
0.0322595 0.000304451 0.000608853
0.0344279 0.000304277 0.000608742
0.0365964 0.000302571 0.000607158
0.0387654 0.000296354 0.000596974
0.0409226 0.000285616 0.000568657
0.043 0.000278998 0.000548296
0 0 0
0.00189809 -3.6128e-18 0.000413714
0.00405086 -5.20782e-18 0.000583304
0.00622348 -4.391e-18 0.000611368
0.00840102 -4.2411e-18 0.000614113
0.0105743 -6.61241e-18 0.000611647
0.0127447 -9.20427e-18 0.000609855
0.0149137 -9.71316e-18 0.000608961
0.0170821 -8.19791e-18 0.000608604
0.0192503 -7.91338e-18 0.000608482
0.0214185 -1.12742e-17 0.000608449
0.0235867 -1.75254e-17 0.00060845
0.0257549 -2.13545e-17 0.000608474
0.0279231 -1.97855e-17 0.000608539
0.0300914 -1.56442e-17 0.000608682
0.0322599 -1.29817e-17 0.000608922
0.0344288 -1.39475e-17 0.000608972
0.0365977 -1.54044e-17 0.000607657
0.0387662 -1.66025e-17 0.000597334
0.0409226 -1.50744e-17 0.000567872
0.043 -2.21936e-18 0.000546537
0 0 0
0.00190569 -0.000171315 0.0004053
0.00406512 -0.000269771 0.000575733
0.00623634 -0.000301461 0.000607901
0.00840682 -0.000306446 0.000612992
0.0105766 -0.000306158 0.000611379
0.0127455 -0.000305206 0.00060983
0.0149139 -0.000304626 0.000608977
0.0170822 -0.000304361 0.000608618
0.0192503 -0.000304262 0.000608489
0.0214185 -0.000304232 0.000608452
0.0235867 -0.00030423 0.000608452
0.0257548 -0.000304247 0.000608476
0.027923 -0.000304291 0.000608539
0.0300912 -0.000304374 0.000608667
0.0322595 -0.000304451 0.000608853
0.0344279 -0.000304277 0.000608742
0.0365964 -0.000302571 0.000607158
0.0387654 -0.000296354 0.000596974
0.0409226 -0.000285616 0.000568657
0.043 -0.000278998 0.000548296
0 0 0
0.00193238 -0.000385445 0.000385445
0.00412034 -0.000560527 0.000560527
0.00626621 -0.000601615 0.000601615
0.00841999 -0.000611077 0.000611077
0.0105814 -0.000610983 0.000610983
0.012747 -0.000609811 0.000609811
0.0149143 -0.000609017 0.000609017
0.0170822 -0.000608646 0.000608646
0.0192503 -0.000608503 0.000608503
0.0214185 -0.000608459 0.000608459
0.0235867 -0.000608456 0.000608456
0.0257548 -0.00060848 0.00060848
0.0279229 -0.000608541 0.000608541
0.0300909 -0.000608647 0.000608647
0.0322586 -0.000608737 0.000608737
0.0344257 -0.000608329 0.000608329
0.0365919 -0.000606103 0.000606103
0.0387611 -0.000595822 0.000595822
0.0409213 -0.000570357 0.000570357
0.043 -0.00055286 0.00055286
0 0 0
0.00209047 -0.000719245 0.000387176
0.004189 -0.000852165 0.000560383
0.00629244 -0.000902088 0.000602016
0.0084291 -0.000913001 0.00061137
0.0105839 -0.000914419 0.000611085
0.0127475 -0.000913766 0.000609849
0.0149143 -0.000913171 0.000609026
0.0170821 -0.000912856 0.000608648
0.0192503 -0.000912725 0.000608503
0.0214185 -0.000912682 0.000608458
0.0235867 -0.000912677 0.000608455
0.0257548 -0.000912697 0.00060848
0.0279229 -0.000912745 0.000608543
0.0300908 -0.000912817 0.000608654
0.0322581 -0.000912801 0.000608754
0.034424 -0.000912261 0.000608359
0.0365873 -0.000909336 0.000606043
0.0387485 -0.000901648 0.000595672
0.0409072 -0.000855209 0.000570683
0.043 -0.000816975 0.000554086
0 0 0
0.00206422 0.000760312 0.000177368
0.00413142 0.000874145 0.00027398
0.00625996 0.000911711 0.00030343
0.00841446 0.000915732 0.0003072
0.0105786 0.000915048 0.000306379
0.0127458 0.0009138 0.00030525
0.0149139 0.000913117 0.000304626
0.0170821 0.000912814 0.000304355
0.0192503 0.000912705 0.000304258
0.0214185 0.000912672 0.00030423
0.0235867 0.000912671 0.000304229
0.0257549 0.000912691 0.000304247
0.027923 0.000912743 0.000304293
0.0300911 0.000912848 0.000304386
0.0322591 0.000912964 0.000304498
0.0344263 0.00091287 0.000304401
0.0365918 0.000910869 0.000302817
0.0387522 0.000904156 0.00029658
0.0409078 0.000852802 0.000285437
0.043 0.000808849 0.000278723
0 0 0
0.00190569 0.0004053 0.000171315
0.00406512 0.000575733 0.000269771
0.00623634 0.000607901 0.000301461
0.00840682 0.000612992 0.000306446
0.0105766 0.000611379 0.000306158
0.0127455 0.00060983 0.000305206
0.0149139 0.000608977 0.000304626
0.0170822 0.000608618 0.000304361
0.0192503 0.000608489 0.000304262
0.0214185 0.000608452 0.000304232
0.0235867 0.000608452 0.00030423
0.0257548 0.000608476 0.000304247
0.027923 0.000608539 0.000304291
0.0300912 0.000608667 0.000304374
0.0322595 0.000608853 0.000304451
0.0344279 0.000608742 0.000304277
0.0365964 0.000607158 0.000302571
0.0387654 0.000596974 0.000296354
0.0409226 0.000568657 0.000285616
0.043 0.000548296 0.000278998
0 0 0
0.00188117 0.000179553 0.000179553
0.0040073 0.000276283 0.000276283
0.00620636 0.000304478 0.000304478
0.00839404 0.000307337 0.000307337
0.0105721 0.000306335 0.000306335
0.0127441 0.000305207 0.000305207
0.0149136 0.000304605 0.000304605
0.0170821 0.000304347 0.000304347
0.0192504 0.000304255 0.000304255
0.0214185 0.000304229 0.000304229
0.0235867 0.000304228 0.000304228
0.0257549 0.000304245 0.000304245
0.0279231 0.00030429 0.00030429
0.0300915 0.000304383 0.000304383
0.0322604 0.000304506 0.000304506
0.0344301 0.000304481 0.000304481
0.0366011 0.000303027 0.000303027
0.0387697 0.000296736 0.000296736
0.0409233 0.000284853 0.000284853
0.043 0.000277113 0.000277113
0 0 0
0.00187423 -5.94769e-18 0.000183235
0.0039926 -8.24359e-18 0.000279782
0.0061931 -6.65021e-18 0.0003062
0.00838837 -5.98799e-18 0.000307918
0.0105699 -9.79317e-18 0.000306468
0.0127434 -1.52977e-17 0.00030522
0.0149134 -1.74151e-17 0.000304596
0.0170821 -1.5672e-17 0.00030434
0.0192504 -1.53849e-17 0.000304251
0.0214185 -1.94072e-17 0.000304227
0.0235867 -2.72134e-17 0.000304227
0.0257549 -3.22941e-17 0.000304244
0.0279232 -3.00264e-17 0.00030429
0.0300917 -2.56883e-17 0.00030439
0.0322608 -2.28593e-17 0.000304543
0.0344311 -2.37804e-17 0.000304598
0.0366026 -2.57892e-17 0.000303255
0.0387705 -2.52299e-17 0.00029687
0.0409231 -2.18145e-17 0.000284476
0.043 -4.73595e-18 0.000276301
0 0 0
0.00188117 -0.000179553 0.000179553
0.0040073 -0.000276283 0.000276283
0.00620636 -0.000304478 0.000304478
0.00839404 -0.000307337 0.000307337
0.0105721 -0.000306335 0.000306335
0.0127441 -0.000305207 0.000305207
0.0149136 -0.000304605 0.000304605
0.0170821 -0.000304347 0.000304347
0.0192504 -0.000304255 0.000304255
0.0214185 -0.000304229 0.000304229
0.0235867 -0.000304228 0.000304228
0.0257549 -0.000304245 0.000304245
0.0279231 -0.00030429 0.00030429
0.0300915 -0.000304383 0.000304383
0.0322604 -0.000304506 0.000304506
0.0344301 -0.000304481 0.000304481
0.0366011 -0.000303027 0.000303027
0.0387697 -0.000296736 0.000296736
0.0409233 -0.000284853 0.000284853
0.043 -0.000277113 0.000277113
0 0 0
0.00190569 -0.0004053 0.000171315
0.00406512 -0.000575733 0.000269771
0.00623634 -0.000607901 0.000301461
0.00840682 -0.000612992 0.000306446
0.0105766 -0.000611379 0.000306158
0.0127455 -0.00060983 0.000305206
0.0149139 -0.000608977 0.000304626
0.0170822 -0.000608618 0.000304361
0.0192503 -0.000608489 0.000304262
0.0214185 -0.000608452 0.000304232
0.0235867 -0.000608452 0.00030423
0.0257548 -0.000608476 0.000304247
0.027923 -0.000608539 0.000304291
0.0300912 -0.000608667 0.000304374
0.0322595 -0.000608853 0.000304451
0.0344279 -0.000608742 0.000304277
0.0365964 -0.000607158 0.000302571
0.0387654 -0.000596974 0.000296354
0.0409226 -0.000568657 0.000285616
0.043 -0.000548296 0.000278998
0 0 0
0.00206422 -0.000760312 0.000177368
0.00413142 -0.000874145 0.00027398
0.00625996 -0.000911711 0.00030343
0.00841446 -0.000915732 0.0003072
0.0105786 -0.000915048 0.000306379
0.0127458 -0.0009138 0.00030525
0.0149139 -0.000913117 0.000304626
0.0170821 -0.000912814 0.000304355
0.0192503 -0.000912705 0.000304258
0.0214185 -0.000912672 0.00030423
0.0235867 -0.000912671 0.000304229
0.0257549 -0.000912691 0.000304247
0.027923 -0.000912743 0.000304293
0.0300911 -0.000912848 0.000304386
0.0322591 -0.000912964 0.000304498
0.0344263 -0.00091287 0.000304401
0.0365918 -0.000910869 0.000302817
0.0387522 -0.000904156 0.00029658
0.0409078 -0.000852802 0.000285437
0.043 -0.000808849 0.000278723
0 0 0
0.00205764 0.000772506 1.23511e-18
0.00411612 0.000885773 1.07949e-18
0.00624586 0.000915991 -8.66497e-20
0.00840805 0.000917255 -1.17184e-18
0.010576 0.000915376 -6.07949e-19
0.012745 0.000913836 1.04928e-18
0.0149137 0.000913094 1.73361e-18
0.0170821 0.000912796 4.6091e-19
0.0192503 0.000912695 -8.16976e-19
0.0214185 0.000912668 -3.97399e-19
0.0235867 0.000912668 -2.22816e-19
0.0257549 0.000912689 -3.5503e-20
0.0279231 0.000912743 9.32825e-19
0.0300913 0.000912866 -1.48903e-18
0.0322595 0.000913056 3.0826e-20
0.0344274 0.000913153 2.24229e-18
0.0365932 0.000911607 1.07726e-18
0.0387528 0.000904809 -1.07981e-18
0.0409074 0.000851705 -3.40814e-18
0.043 0.000806191 2.86816e-19
0 0 0
0.00189809 0.000413714 4.22921e-18
0.00405086 0.000583304 3.79706e-18
0.00622348 0.000611368 -1.68546e-18
0.00840102 0.000614113 -5.53473e-18
0.0105743 0.000611647 -3.35716e-18
0.0127447 0.000609855 1.76393e-18
0.0149137 0.000608961 3.01734e-18
0.0170821 0.000608604 -1.3467e-18
0.0192503 0.000608482 -6.23053e-18
0.0214185 0.000608449 -5.79779e-18
0.0235867 0.00060845 -2.14727e-18
0.0257549 0.000608474 -8.78895e-19
0.0279231 0.000608539 -2.57664e-18
0.0300914 0.000608682 -6.30064e-18
0.0322599 0.000608922 -3.82207e-18
0.0344288 0.000608972 1.6579e-18
0.0365977 0.000607657 2.49539e-18
0.0387662 0.000597334 -3.16511e-18
0.0409226 0.000567872 -8.73991e-18
0.043 0.000546537 -3.13532e-18
0 0 0
0.00187423 0.000183235 6.43912e-18
0.0039926 0.000279782 5.56676e-18
0.0061931 0.0003062 -2.99171e-18
0.00838837 0.000307918 -8.83748e-18
0.0105699 0.000306468 -5.25879e-18
0.0127434 0.00030522 2.66423e-18
0.0149134 0.000304596 4.775e-18
0.0170821 0.00030434 -2.36295e-18
0.0192504 0.000304251 -9.43983e-18
0.0214185 0.000304227 -8.79486e-18
0.0235867 0.000304227 -2.98496e-18
0.0257549 0.000304244 -1.17788e-18
0.0279232 0.00030429 -4.40828e-18
0.0300917 0.00030439 -1.09118e-17
0.0322608 0.000304543 -7.95955e-18
0.0344311 0.000304598 5.50084e-19
0.0366026 0.000303255 2.44798e-18
0.0387705 0.00029687 -4.58946e-18
0.0409231 0.000284476 -1.26663e-17
0.043 0.000276301 -4.91891e-18
0 0 0
0.00186739 -6.96533e-18 7.05048e-18
0.00397769 -9.35719e-18 6.20148e-18
0.00617961 -6.59556e-18 -3.4119e-18
0.00838266 -4.99038e-18 -9.64832e-18
0.0105677 -9.51677e-18 -5.30102e-18
0.0127427 -1.74845e-17 3.29148e-18
0.0149132 -2.27296e-17 4.47536e-18
0.0170821 -2.22516e-17 -3.77547e-18
0.0192504 -2.14351e-17 -1.21748e-17
0.0214185 -2.29362e-17 -9.51796e-18
0.0235867 -2.88086e-17 -1.75383e-18
0.0257549 -3.29502e-17 9.36815e-19
0.0279232 -3.20378e-17 -4.51553e-18
0.0300918 -2.95035e-17 -1.372e-17
0.0322612 -2.94738e-17 -1.24762e-17
0.0344321 -3.04381e-17 -2.87103e-18
0.0366041 -3.00483e-17 1.14569e-18
0.0387713 -2.57324e-17 -3.50959e-18
0.0409228 -1.93657e-17 -1.04384e-17
0.043 -2.93596e-18 -4.07281e-18
0 0 0
0.00187423 -0.000183235 5.86767e-18
0.0039926 -0.000279782 4.835e-18
0.0061931 -0.0003062 -2.90431e-18
0.00838837 -0.000307918 -8.05982e-18
0.0105699 -0.000306468 -4.22142e-18
0.0127434 -0.00030522 3.06667e-18
0.0149134 -0.000304596 3.50123e-18
0.0170821 -0.00030434 -4.77129e-18
0.0192504 -0.000304251 -1.12789e-17
0.0214185 -0.000304227 -8.28912e-18
0.0235867 -0.000304227 -8.31176e-20
0.0257549 -0.000304244 2.57586e-18
0.0279232 -0.00030429 -3.13286e-18
0.0300917 -0.00030439 -1.3715e-17
0.0322608 -0.000304543 -1.39321e-17
0.0344311 -0.000304598 -5.61857e-18
0.0366026 -0.000303255 -4.34778e-20
0.0387705 -0.00029687 -1.20549e-18
0.0409231 -0.000284476 -6.23147e-18
0.043 -0.000276301 -1.7363e-18
0 0 0
0.00189809 -0.000413714 3.7011e-18
0.00405086 -0.000583304 2.75646e-18
0.00622348 -0.000611368 -2.12202e-18
0.00840102 -0.000614113 -5.4003e-18
0.0105743 -0.000611647 -2.67789e-18
0.0127447 -0.000609855 1.89203e-18
0.0149137 -0.000608961 2.4738e-18
0.0170821 -0.000608604 -2.76615e-18
0.0192503 -0.000608482 -7.15806e-18
0.0214185 -0.000608449 -4.8526e-18
0.0235867 -0.00060845 2.4481e-19
0.0257549 -0.000608474 1.79385e-18
0.0279231 -0.000608539 -2.14473e-18
0.0300914 -0.000608682 -9.83623e-18
0.0322599 -0.000608922 -9.99131e-18
0.0344288 -0.000608972 -3.92256e-18
0.0365977 -0.000607657 2.08659e-20
0.0387662 -0.000597334 -2.69604e-19
0.0409226 -0.000567872 -3.2434e-18
0.043 -0.000546537 -9.1614e-19
0 0 0
0.00205764 -0.000772506 6.19015e-19
0.00411612 -0.000885773 6.66916e-19
0.00624586 -0.000915991 -5.81779e-19
0.00840805 -0.000917255 -6.33607e-19
0.010576 -0.000915376 -5.69351e-19
0.012745 -0.000913836 2.69506e-19
0.0149137 -0.000913094 4.58662e-19
0.0170821 -0.000912796 -7.48989e-19
0.0192503 -0.000912695 -1.40882e-18
0.0214185 -0.000912668 -1.10951e-18
0.0235867 -0.000912668 -9.13659e-21
0.0257549 -0.000912689 3.26887e-19
0.0279231 -0.000912743 -6.01976e-20
0.0300913 -0.000912866 -2.8524e-18
0.0322595 -0.000913056 -2.63626e-18
0.0344274 -0.000913153 -9.10857e-19
0.0365932 -0.000911607 3.95015e-19
0.0387528 -0.000904809 9.35915e-20
0.0409074 -0.000851705 1.45817e-19
0.043 -0.000806191 -1.03882e-18
0 0 0
0.00206422 0.000760312 -0.000177368
0.00413142 0.000874145 -0.00027398
0.00625996 0.000911711 -0.00030343
0.00841446 0.000915732 -0.0003072
0.0105786 0.000915048 -0.000306379
0.0127458 0.0009138 -0.00030525
0.0149139 0.000913117 -0.000304626
0.0170821 0.000912814 -0.000304355
0.0192503 0.000912705 -0.000304258
0.0214185 0.000912672 -0.00030423
0.0235867 0.000912671 -0.000304229
0.0257549 0.000912691 -0.000304247