<?xml version="1.0"?>
<VTKFile type="UnstructuredGrid" version="0.1" byte_order="LittleEndian">
<UnstructuredGrid>
<Piece NumberOfPoints="1029" NumberOfCells="720">
<Points>
<DataArray type="Float32" NumberOfComponents="3" format="ascii">
0 0 0
0.005 0 0
0.01 0 0
0.015 0 0
0.02 0 0
0.025 0 0
0.03 0 0
0.035 0 0
0.04 0 0
0.045 0 0
0.05 0 0
0.055 0 0
0.06 0 0
0.065 0 0
0.07 0 0
0.075 0 0
0.08 0 0
0.085 0 0
0.09 0 0
0.095 0 0
0.1 0 0
0 0.005 0
0.005 0.005 0
0.01 0.005 0
0.015 0.005 0
0.02 0.005 0
0.025 0.005 0
0.03 0.005 0
0.035 0.005 0
0.04 0.005 0
0.045 0.005 0
0.05 0.005 0
0.055 0.005 0
0.06 0.005 0
0.065 0.005 0
0.07 0.005 0
0.075 0.005 0
0.08 0.005 0
0.085 0.005 0
0.09 0.005 0
0.095 0.005 0
0.1 0.005 0
0 0.01 0
0.005 0.01 0
0.01 0.01 0
0.015 0.01 0
0.02 0.01 0
0.025 0.01 0
0.03 0.01 0
0.035 0.01 0
0.04 0.01 0
0.045 0.01 0
0.05 0.01 0
0.055 0.01 0
0.06 0.01 0
0.065 0.01 0
0.07 0.01 0
0.075 0.01 0
0.08 0.01 0
0.085 0.01 0
0.09 0.01 0
0.095 0.01 0
0.1 0.01 0
0 0.015 0
0.005 0.015 0
0.01 0.015 0
0.015 0.015 0
0.02 0.015 0
0.025 0.015 0
0.03 0.015 0
0.035 0.015 0
0.04 0.015 0
0.045 0.015 0
0.05 0.015 0
0.055 0.015 0
0.06 0.015 0
0.065 0.015 0
0.07 0.015 0
0.075 0.015 0
0.08 0.015 0
0.085 0.015 0
0.09 0.015 0
0.095 0.015 0
0.1 0.015 0
0 0.02 0
0.005 0.02 0
0.01 0.02 0
0.015 0.02 0
0.02 0.02 0
0.025 0.02 0
0.03 0.02 0
0.035 0.02 0
0.04 0.02 0
0.045 0.02 0
0.05 0.02 0
0.055 0.02 0
0.06 0.02 0
0.065 0.02 0
0.07 0.02 0
0.075 0.02 0
0.08 0.02 0
0.085 0.02 0
0.09 0.02 0
0.095 0.02 0
0.1 0.02 0
0 0.025 0
0.005 0.025 0
0.01 0.025 0
0.015 0.025 0
0.02 0.025 0
0.025 0.025 0
0.03 0.025 0
0.035 0.025 0
0.04 0.025 0
0.045 0.025 0
0.05 0.025 0
0.055 0.025 0
0.06 0.025 0
0.065 0.025 0
0.07 0.025 0
0.075 0.025 0
0.08 0.025 0
0.085 0.025 0
0.09 0.025 0
0.095 0.025 0
0.1 0.025 0
0 0.03 0
0.005 0.03 0
0.01 0.03 0
0.015 0.03 0
0.02 0.03 0
0.025 0.03 0
0.03 0.03 0
0.035 0.03 0
0.04 0.03 0
0.045 0.03 0
0.05 0.03 0
0.055 0.03 0
0.06 0.03 0
0.065 0.03 0
0.07 0.03 0
0.075 0.03 0
0.08 0.03 0
0.085 0.03 0
0.09 0.03 0
0.095 0.03 0
0.1 0.03 0
0 0 0.005
0.005 0 0.005
0.01 0 0.005
0.015 0 0.005
0.02 0 0.005
0.025 0 0.005
0.03 0 0.005
0.035 0 0.005
0.04 0 0.005
0.045 0 0.005
0.05 0 0.005
0.055 0 0.005
0.06 0 0.005
0.065 0 0.005
0.07 0 0.005
0.075 0 0.005
0.08 0 0.005
0.085 0 0.005
0.09 0 0.005
0.095 0 0.005
0.1 0 0.005
0 0.005 0.005
0.005 0.005 0.005
0.01 0.005 0.005
0.015 0.005 0.005
0.02 0.005 0.005
0.025 0.005 0.005
0.03 0.005 0.005
0.035 0.005 0.005
0.04 0.005 0.005
0.045 0.005 0.005
0.05 0.005 0.005
0.055 0.005 0.005
0.06 0.005 0.005
0.065 0.005 0.005
0.07 0.005 0.005
0.075 0.005 0.005
0.08 0.005 0.005
0.085 0.005 0.005
0.09 0.005 0.005
0.095 0.005 0.005
0.1 0.005 0.005
0 0.01 0.005
0.005 0.01 0.005
0.01 0.01 0.005
0.015 0.01 0.005
0.02 0.01 0.005
0.025 0.01 0.005
0.03 0.01 0.005
0.035 0.01 0.005
0.04 0.01 0.005
0.045 0.01 0.005
0.05 0.01 0.005
0.055 0.01 0.005
0.06 0.01 0.005
0.065 0.01 0.005
0.07 0.01 0.005
0.075 0.01 0.005
0.08 0.01 0.005
0.085 0.01 0.005
0.09 0.01 0.005
0.095 0.01 0.005
0.1 0.01 0.005
0 0.015 0.005
0.005 0.015 0.005
0.01 0.015 0.005
0.015 0.015 0.005
0.02 0.015 0.005
0.025 0.015 0.005
0.03 0.015 0.005
0.035 0.015 0.005
0.04 0.015 0.005
0.045 0.015 0.005
0.05 0.015 0.005
0.055 0.015 0.005
0.06 0.015 0.005
0.065 0.015 0.005
0.07 0.015 0.005
0.075 0.015 0.005
0.08 0.015 0.005
0.085 0.015 0.005
0.09 0.015 0.005
0.095 0.015 0.005
0.1 0.015 0.005
0 0.02 0.005
0.005 0.02 0.005
0.01 0.02 0.005
0.015 0.02 0.005
0.02 0.02 0.005
0.025 0.02 0.005
0.03 0.02 0.005
0.035 0.02 0.005
0.04 0.02 0.005
0.045 0.02 0.005
0.05 0.02 0.005
0.055 0.02 0.005
0.06 0.02 0.005
0.065 0.02 0.005
0.07 0.02 0.005
0.075 0.02 0.005
0.08 0.02 0.005
0.085 0.02 0.005
0.09 0.02 0.005
0.095 0.02 0.005
0.1 0.02 0.005
0 0.025 0.005
0.005 0.025 0.005
0.01 0.025 0.005
0.015 0.025 0.005
0.02 0.025 0.005
0.025 0.025 0.005
0.03 0.025 0.005
0.035 0.025 0.005
0.04 0.025 0.005
0.045 0.025 0.005
0.05 0.025 0.005
0.055 0.025 0.005
0.06 0.025 0.005
0.065 0.025 0.005
0.07 0.025 0.005
0.075 0.025 0.005
0.08 0.025 0.005
0.085 0.025 0.005
0.09 0.025 0.005
0.095 0.025 0.005
0.1 0.025 0.005
0 0.03 0.005
0.005 0.03 0.005
0.01 0.03 0.005
0.015 0.03 0.005
0.02 0.03 0.005
0.025 0.03 0.005
0.03 0.03 0.005
0.035 0.03 0.005
0.04 0.03 0.005
0.045 0.03 0.005
0.05 0.03 0.005
0.055 0.03 0.005
0.06 0.03 0.005
0.065 0.03 0.005
0.07 0.03 0.005
0.075 0.03 0.005
0.08 0.03 0.005
0.085 0.03 0.005
0.09 0.03 0.005
0.095 0.03 0.005
0.1 0.03 0.005
0 0 0.01
0.005 0 0.01
0.01 0 0.01
0.015 0 0.01
0.02 0 0.01
0.025 0 0.01
0.03 0 0.01
0.035 0 0.01
0.04 0 0.01
0.045 0 0.01
0.05 0 0.01
0.055 0 0.01
0.06 0 0.01
0.065 0 0.01
0.07 0 0.01
0.075 0 0.01
0.08 0 0.01
0.085 0 0.01
0.09 0 0.01
0.095 0 0.01
0.1 0 0.01
0 0.005 0.01
0.005 0.005 0.01
0.01 0.005 0.01
0.015 0.005 0.01
0.02 0.005 0.01
0.025 0.005 0.01
0.03 0.005 0.01
0.035 0.005 0.01
0.04 0.005 0.01
0.045 0.005 0.01
0.05 0.005 0.01
0.055 0.005 0.01
0.06 0.005 0.01
0.065 0.005 0.01
0.07 0.005 0.01
0.075 0.005 0.01
0.08 0.005 0.01
0.085 0.005 0.01
0.09 0.005 0.01
0.095 0.005 0.01
0.1 0.005 0.01
0 0.01 0.01
0.005 0.01 0.01
0.01 0.01 0.01
0.015 0.01 0.01
0.02 0.01 0.01
0.025 0.01 0.01
0.03 0.01 0.01
0.035 0.01 0.01
0.04 0.01 0.01
0.045 0.01 0.01
0.05 0.01 0.01
0.055 0.01 0.01
0.06 0.01 0.01
0.065 0.01 0.01
0.07 0.01 0.01
0.075 0.01 0.01
0.08 0.01 0.01
0.085 0.01 0.01
0.09 0.01 0.01
0.095 0.01 0.01
0.1 0.01 0.01
0 0.015 0.01
0.005 0.015 0.01
0.01 0.015 0.01
0.015 0.015 0.01
0.02 0.015 0.01
0.025 0.015 0.01
0.03 0.015 0.01
0.035 0.015 0.01
0.04 0.015 0.01
0.045 0.015 0.01
0.05 0.015 0.01
0.055 0.015 0.01
0.06 0.015 0.01
0.065 0.015 0.01
0.07 0.015 0.01
0.075 0.015 0.01
0.08 0.015 0.01
0.085 0.015 0.01
0.09 0.015 0.01
0.095 0.015 0.01
0.1 0.015 0.01
0 0.02 0.01
0.005 0.02 0.01
0.01 0.02 0.01
0.015 0.02 0.01
0.02 0.02 0.01
0.025 0.02 0.01
0.03 0.02 0.01
0.035 0.02 0.01
0.04 0.02 0.01
0.045 0.02 0.01
0.05 0.02 0.01
0.055 0.02 0.01
0.06 0.02 0.01
0.065 0.02 0.01
0.07 0.02 0.01
0.075 0.02 0.01
0.08 0.02 0.01
0.085 0.02 0.01
0.09 0.02 0.01
0.095 0.02 0.01
0.1 0.02 0.01
0 0.025 0.01
0.005 0.025 0.01
0.01 0.025 0.01
0.015 0.025 0.01
0.02 0.025 0.01
0.025 0.025 0.01
0.03 0.025 0.01
0.035 0.025 0.01
0.04 0.025 0.01
0.045 0.025 0.01
0.05 0.025 0.01
0.055 0.025 0.01
0.06 0.025 0.01
0.065 0.025 0.01
0.07 0.025 0.01
0.075 0.025 0.01
0.08 0.025 0.01
0.085 0.025 0.01
0.09 0.025 0.01
0.095 0.025 0.01
0.1 0.025 0.01
0 0.03 0.01
0.005 0.03 0.01
0.01 0.03 0.01
0.015 0.03 0.01
0.02 0.03 0.01
0.025 0.03 0.01
0.03 0.03 0.01
0.035 0.03 0.01
0.04 0.03 0.01
0.045 0.03 0.01
0.05 0.03 0.01
0.055 0.03 0.01
0.06 0.03 0.01
0.065 0.03 0.01
0.07 0.03 0.01
0.075 0.03 0.01
0.08 0.03 0.01
0.085 0.03 0.01
0.09 0.03 0.01
0.095 0.03 0.01
0.1 0.03 0.01
0 0 0.015
0.005 0 0.015
0.01 0 0.015
0.015 0 0.015
0.02 0 0.015
0.025 0 0.015
0.03 0 0.015
0.035 0 0.015
0.04 0 0.015
0.045 0 0.015
0.05 0 0.015
0.055 0 0.015
0.06 0 0.015
0.065 0 0.015
0.07 0 0.015
0.075 0 0.015
0.08 0 0.015
0.085 0 0.015
0.09 0 0.015
0.095 0 0.015
0.1 0 0.015
0 0.005 0.015
0.005 0.005 0.015
0.01 0.005 0.015
0.015 0.005 0.015
0.02 0.005 0.015
0.025 0.005 0.015
0.03 0.005 0.015
0.035 0.005 0.015
0.04 0.005 0.015
0.045 0.005 0.015
0.05 0.005 0.015
0.055 0.005 0.015
0.06 0.005 0.015
0.065 0.005 0.015
0.07 0.005 0.015
0.075 0.005 0.015
0.08 0.005 0.015
0.085 0.005 0.015
0.09 0.005 0.015
0.095 0.005 0.015
0.1 0.005 0.015
0 0.01 0.015
0.005 0.01 0.015
0.01 0.01 0.015
0.015 0.01 0.015
0.02 0.01 0.015
0.025 0.01 0.015
0.03 0.01 0.015
0.035 0.01 0.015
0.04 0.01 0.015
0.045 0.01 0.015
0.05 0.01 0.015
0.055 0.01 0.015
0.06 0.01 0.015
0.065 0.01 0.015
0.07 0.01 0.015
0.075 0.01 0.015
0.08 0.01 0.015
0.085 0.01 0.015
0.09 0.01 0.015
0.095 0.01 0.015
0.1 0.01 0.015
0 0.015 0.015
0.005 0.015 0.015
0.01 0.015 0.015
0.015 0.015 0.015
0.02 0.015 0.015
0.025 0.015 0.015
0.03 0.015 0.015
0.035 0.015 0.015
0.04 0.015 0.015
0.045 0.015 0.015
0.05 0.015 0.015
0.055 0.015 0.015
0.06 0.015 0.015
0.065 0.015 0.015
0.07 0.015 0.015
0.075 0.015 0.015
0.08 0.015 0.015
0.085 0.015 0.015
0.09 0.015 0.015
0.095 0.015 0.015
0.1 0.015 0.015
0 0.02 0.015
0.005 0.02 0.015
0.01 0.02 0.015
0.015 0.02 0.015
0.02 0.02 0.015
0.025 0.02 0.015
0.03 0.02 0.015
0.035 0.02 0.015
0.04 0.02 0.015
0.045 0.02 0.015
0.05 0.02 0.015
0.055 0.02 0.015
0.06 0.02 0.015
0.065 0.02 0.015
0.07 0.02 0.015
0.075 0.02 0.015
0.08 0.02 0.015
0.085 0.02 0.015
0.09 0.02 0.015
0.095 0.02 0.015
0.1 0.02 0.015
0 0.025 0.015
0.005 0.025 0.015
0.01 0.025 0.015
0.015 0.025 0.015
0.02 0.025 0.015
0.025 0.025 0.015
0.03 0.025 0.015
0.035 0.025 0.015
0.04 0.025 0.015
0.045 0.025 0.015
0.05 0.025 0.015
0.055 0.025 0.015
0.06 0.025 0.015
0.065 0.025 0.015
0.07 0.025 0.015
0.075 0.025 0.015
0.08 0.025 0.015
0.085 0.025 0.015
0.09 0.025 0.015
0.095 0.025 0.015
0.1 0.025 0.015
0 0.03 0.015
0.005 0.03 0.015
0.01 0.03 0.015
0.015 0.03 0.015
0.02 0.03 0.015
0.025 0.03 0.015
0.03 0.03 0.015
0.035 0.03 0.015
0.04 0.03 0.015
0.045 0.03 0.015
0.05 0.03 0.015
0.055 0.03 0.015
0.06 0.03 0.015
0.065 0.03 0.015
0.07 0.03 0.015
0.075 0.03 0.015
0.08 0.03 0.015
0.085 0.03 0.015
0.09 0.03 0.015
0.095 0.03 0.015
0.1 0.03 0.015
0 0 0.02
0.005 0 0.02
0.01 0 0.02
0.015 0 0.02
0.02 0 0.02
0.025 0 0.02
0.03 0 0.02
0.035 0 0.02
0.04 0 0.02
0.045 0 0.02
0.05 0 0.02
0.055 0 0.02
0.06 0 0.02
0.065 0 0.02
0.07 0 0.02
0.075 0 0.02
0.08 0 0.02
0.085 0 0.02
0.09 0 0.02
0.095 0 0.02
0.1 0 0.02
0 0.005 0.02
0.005 0.005 0.02
0.01 0.005 0.02
0.015 0.005 0.02
0.02 0.005 0.02
0.025 0.005 0.02
0.03 0.005 0.02
0.035 0.005 0.02
0.04 0.005 0.02
0.045 0.005 0.02
0.05 0.005 0.02
0.055 0.005 0.02
0.06 0.005 0.02
0.065 0.005 0.02
0.07 0.005 0.02
0.075 0.005 0.02
0.08 0.005 0.02
0.085 0.005 0.02
0.09 0.005 0.02
0.095 0.005 0.02
0.1 0.005 0.02
0 0.01 0.02
0.005 0.01 0.02
0.01 0.01 0.02
0.015 0.01 0.02
0.02 0.01 0.02
0.025 0.01 0.02
0.03 0.01 0.02
0.035 0.01 0.02
0.04 0.01 0.02
0.045 0.01 0.02
0.05 0.01 0.02
0.055 0.01 0.02
0.06 0.01 0.02
0.065 0.01 0.02
0.07 0.01 0.02
0.075 0.01 0.02
0.08 0.01 0.02
0.085 0.01 0.02
0.09 0.01 0.02
0.095 0.01 0.02
[...]
<PointData Vectors="Displacement">
<DataArray type="Float32" Name="Displacement" NumberOfComponents="3" format="ascii">
0 0 0
0.00181253 0.000550138 0.000550138
0.00340874 0.000662648 0.000662648
0.00503448 0.000713741 0.000713741
0.00670433 0.000725672 0.000725672
0.00839969 0.000727921 0.000727921
0.0101073 0.000727448 0.000727448
0.0118198 0.000726833 0.000726833
0.0135339 0.00072646 0.00072646
0.0152484 0.00072629 0.00072629
0.016963 0.00072623 0.00072623
0.0186775 0.000726226 0.000726226
0.020392 0.000726262 0.000726262
0.0221064 0.000726338 0.000726338
0.0238203 0.000726432 0.000726432
0.0255329 0.00072634 0.00072634
0.0272429 0.000725424 0.000725424
0.0289477 0.00072108 0.00072108
0.0306457 0.000710192 0.000710192
0.0323504 0.00066096 0.00066096
0.034 0.000622885 0.000622885
0 0 0
0.0016838 0.000298075 0.000558712
0.00334529 0.000441196 0.000672965
0.00500748 0.000478136 0.000716394
0.00669457 0.000486974 0.000726698
0.00839676 0.0004869 0.000728112
0.0101067 0.000485692 0.000727458
0.0118198 0.000484819 0.000726807
0.013534 0.000484387 0.00072644
0.0152485 0.000484211 0.00072628
0.016963 0.000484155 0.000726225
0.0186775 0.000484156 0.000726222
0.020392 0.000484198 0.000726258
0.0221064 0.000484297 0.000726336
0.0238205 0.00048446 0.000726445
0.0255338 0.00048459 0.000726425
0.0272454 0.000484045 0.000725687
0.0289541 0.000481042 0.000722002
0.0306605 0.000468508 0.000712226
0.0323661 0.000440042 0.000659246
0.034 0.00042153 0.000616462
0 0 0
0.00166282 0.00013605 0.000586152
0.00329773 0.000214555 0.000689177
0.00497902 0.00024087 0.000724114
0.00668104 0.000244875 0.000729133
0.00839155 0.000244279 0.000728744
0.010105 0.000243199 0.000727525
0.0118194 0.000242541 0.000726765
0.0135339 0.000242234 0.0007264
0.0152485 0.000242115 0.000726257
0.016963 0.000242079 0.000726213
0.0186776 0.00024208 0.000726214
0.0203921 0.00024211 0.00072625
0.0221066 0.000242183 0.000726336
0.023821 0.000242317 0.000726493
0.0255351 0.000242461 0.000726642
0.0272484 0.000242285 0.000726413
0.0289596 0.000240197 0.000723689
0.030665 0.000232734 0.000714681
0.032367 0.000220145 0.000656489
0.034 0.000212683 0.000607743
0 0 0
0.00165756 1.85022e-18 0.000594174
0.00328555 3.96914e-18 0.000697555
0.00496704 6.29268e-18 0.000727546
0.00667517 7.67672e-18 0.000730453
0.00838906 7.0192e-18 0.000729075
0.0101042 5.50268e-18 0.000727576
0.0118191 2.47601e-18 0.000726749
0.0135339 -5.56545e-19 0.000726383
0.0152485 -2.6896e-18 0.000726246
0.016963 -3.5853e-18 0.000726207
0.0186776 -3.90632e-18 0.00072621
0.0203921 -3.73052e-18 0.000726247
0.0221066 -3.10596e-18 0.000726338
0.0238212 -2.34364e-18 0.000726519
0.0255357 -9.8929e-19 0.00072676
0.0272497 1.75723e-18 0.00072675
0.0289613 3.75395e-18 0.000724479
0.0306658 7.20342e-18 0.000715285
0.0323666 8.20218e-18 0.000655244
0.034 3.73676e-18 0.000604895
0 0 0
0.00166282 -0.00013605 0.000586152
0.00329773 -0.000214555 0.000689177
0.00497902 -0.00024087 0.000724114
0.00668104 -0.000244875 0.000729133
0.00839155 -0.000244279 0.000728744
0.010105 -0.000243199 0.000727525
0.0118194 -0.000242541 0.000726765
0.0135339 -0.000242234 0.0007264
0.0152485 -0.000242115 0.000726257
0.016963 -0.000242079 0.000726213
0.0186776 -0.00024208 0.000726214
0.0203921 -0.00024211 0.00072625
0.0221066 -0.000242183 0.000726336
0.023821 -0.000242317 0.000726493
0.0255351 -0.000242461 0.000726642
0.0272484 -0.000242285 0.000726413
0.0289596 -0.000240197 0.000723689
0.030665 -0.000232734 0.000714681
0.032367 -0.000220145 0.000656489
0.034 -0.000212683 0.000607743
0 0 0
0.0016838 -0.000298075 0.000558712
0.00334529 -0.000441196 0.000672965
0.00500748 -0.000478136 0.000716394
0.00669457 -0.000486974 0.000726698
0.00839676 -0.0004869 0.000728112
0.0101067 -0.000485692 0.000727458
0.0118198 -0.000484819 0.000726807
0.013534 -0.000484387 0.00072644
0.0152485 -0.000484211 0.00072628
0.016963 -0.000484155 0.000726225
0.0186775 -0.000484156 0.000726222
0.020392 -0.000484198 0.000726258
0.0221064 -0.000484297 0.000726336
0.0238205 -0.00048446 0.000726445
0.0255338 -0.00048459 0.000726425
0.0272454 -0.000484045 0.000725687
0.0289541 -0.000481042 0.000722002
0.0306605 -0.000468508 0.000712226
0.0323661 -0.000440042 0.000659246
0.034 -0.00042153 0.000616462
0 0 0
0.00181253 -0.000550138 0.000550138
0.00340874 -0.000662648 0.000662648
0.00503448 -0.000713741 0.000713741
0.00670433 -0.000725672 0.000725672
0.00839969 -0.000727921 0.000727921
0.0101073 -0.000727448 0.000727448
0.0118198 -0.000726833 0.000726833
0.0135339 -0.00072646 0.00072646
0.0152484 -0.00072629 0.00072629
0.016963 -0.00072623 0.00072623
0.0186775 -0.000726226 0.000726226
0.020392 -0.000726262 0.000726262
0.0221064 -0.000726338 0.000726338
0.0238203 -0.000726432 0.000726432
0.0255329 -0.00072634 0.00072634
0.0272429 -0.000725424 0.000725424
0.0289477 -0.00072108 0.00072108
0.0306457 -0.000710192 0.000710192
0.0323504 -0.00066096 0.00066096
0.034 -0.000622885 0.000622885
0 0 0
0.0016838 0.000558712 0.000298075
0.00334529 0.000672965 0.000441196
0.00500748 0.000716394 0.000478136
0.00669457 0.000726698 0.000486974
0.00839676 0.000728112 0.0004869
0.0101067 0.000727458 0.000485692
0.0118198 0.000726807 0.000484819
0.013534 0.00072644 0.000484387
0.0152485 0.00072628 0.000484211
0.016963 0.000726225 0.000484155
0.0186775 0.000726222 0.000484156
0.020392 0.000726258 0.000484198
0.0221064 0.000726336 0.000484297
0.0238205 0.000726445 0.00048446
0.0255338 0.000726425 0.00048459
0.0272454 0.000725687 0.000484045
0.0289541 0.000722002 0.000481042
0.0306605 0.000712226 0.000468508
0.0323661 0.000659246 0.000440042
0.034 0.000616462 0.00042153
0 0 0
0.00154978 0.000296334 0.000296334
0.00328406 0.000440977 0.000440977
0.00498301 0.000477769 0.000477769
0.00668575 0.000486705 0.000486705
0.00839423 0.000486803 0.000486803
0.0101062 0.000485654 0.000485654
0.0118198 0.00048481 0.00048481
0.0135341 0.000484386 0.000484386
0.0152485 0.000484212 0.000484212
0.016963 0.000484156 0.000484156
0.0186775 0.000484156 0.000484156
0.020392 0.000484197 0.000484197
0.0221064 0.000484293 0.000484293
0.0238207 0.000484451 0.000484451
0.0255346 0.000484567 0.000484567
0.0272478 0.000484007 0.000484007
0.0289601 0.000481084 0.000481084
0.0306761 0.00046861 0.00046861
0.0323833 0.000439719 0.000439719
0.034 0.000420381 0.000420381
0 0 0
0.00152814 0.000131546 0.000309011
0.00323806 0.000211235 0.000451782
0.00495649 0.000239204 0.000482679
0.00667344 0.000244201 0.000488358
0.00838947 0.000244062 0.000487199
0.0101047 0.00024315 0.000485694
0.0118194 0.000242538 0.000484779
0.013534 0.000242239 0.000484359
0.0152486 0.000242119 0.000484197
0.0169631 0.000242082 0.000484148
0.0186775 0.000242082 0.00048415
0.0203921 0.000242111 0.000484192
0.0221066 0.00024218 0.000484293
0.0238211 0.000242299 0.000484481
0.0255358 0.000242399 0.000484716
0.0272506 0.000242131 0.000484487
0.0289656 0.000239907 0.000482201
0.0306813 0.000232492 0.000469673
0.0323851 0.0002204 0.000437799
0.034 0.00021312 0.000415539
0 0 0
0.00152201 4.49601e-18 0.000314519
0.00322653 1.06489e-17 0.000457073
0.00494544 1.76228e-17 0.000485356
0.00666807 2.19752e-17 0.000489312
0.00838722 2.11335e-17 0.000487457
0.0101039 1.48688e-17 0.00048573
0.0118192 5.51575e-18 0.000484768
0.013534 -3.08084e-18 0.000484346
0.0152486 -9.24137e-18 0.000484189
0.0169631 -1.0789e-17 0.000484144
0.0186776 -1.13182e-17 0.000484148
0.0203921 -1.1428e-17 0.000484189
0.0221066 -1.13806e-17 0.000484294
0.0238214 -1.19453e-17 0.000484502
0.0255364 -9.40224e-18 0.000484804
0.0272518 -1.66812e-18 0.000484751
0.0289673 9.77116e-18 0.00048272
0.0306824 2.16962e-17 0.000469987
0.0323851 2.77534e-17 0.000436916
0.034 1.04126e-17 0.000413664
0 0 0
0.00152814 -0.000131546 0.000309011
0.00323806 -0.000211235 0.000451782
0.00495649 -0.000239204 0.000482679
0.00667344 -0.000244201 0.000488358
0.00838947 -0.000244062 0.000487199
0.0101047 -0.00024315 0.000485694
0.0118194 -0.000242538 0.000484779
0.013534 -0.000242239 0.000484359
0.0152486 -0.000242119 0.000484197
0.0169631 -0.000242082 0.000484148
0.0186775 -0.000242082 0.00048415
0.0203921 -0.000242111 0.000484192
0.0221066 -0.00024218 0.000484293
0.0238211 -0.000242299 0.000484481
0.0255358 -0.000242399 0.000484716
0.0272506 -0.000242131 0.000484487
0.0289656 -0.000239907 0.000482201
0.0306813 -0.000232492 0.000469673
0.0323851 -0.0002204 0.000437799
0.034 -0.00021312 0.000415539
0 0 0
0.00154978 -0.000296334 0.000296334
0.00328406 -0.000440977 0.000440977
0.00498301 -0.000477769 0.000477769
0.00668575 -0.000486705 0.000486705
0.00839423 -0.000486803 0.000486803
0.0101062 -0.000485654 0.000485654
0.0118198 -0.00048481 0.00048481
0.0135341 -0.000484386 0.000484386
0.0152485 -0.000484212 0.000484212
0.016963 -0.000484156 0.000484156
0.0186775 -0.000484156 0.000484156
0.020392 -0.000484197 0.000484197
0.0221064 -0.000484293 0.000484293
0.0238207 -0.000484451 0.000484451
0.0255346 -0.000484567 0.000484567
0.0272478 -0.000484007 0.000484007
0.0289601 -0.000481084 0.000481084
0.0306761 -0.00046861 0.00046861
0.0323833 -0.000439719 0.000439719
0.034 -0.000420381 0.000420381
0 0 0
0.0016838 -0.000558712 0.000298075
0.00334529 -0.000672965 0.000441196
0.00500748 -0.000716394 0.000478136
0.00669457 -0.000726698 0.000486974
0.00839676 -0.000728112 0.0004869
0.0101067 -0.000727458 0.000485692
0.0118198 -0.000726807 0.000484819
0.013534 -0.00072644 0.000484387
0.0152485 -0.00072628 0.000484211
0.016963 -0.000726225 0.000484155
0.0186775 -0.000726222 0.000484156
0.020392 -0.000726258 0.000484198
0.0221064 -0.000726336 0.000484297
0.0238205 -0.000726445 0.00048446
0.0255338 -0.000726425 0.00048459
0.0272454 -0.000725687 0.000484045
0.0289541 -0.000722002 0.000481042
0.0306605 -0.000712226 0.000468508
0.0323661 -0.000659246 0.000440042
0.034 -0.000616462 0.00042153
0 0 0
0.00166282 0.000586152 0.00013605
0.00329773 0.000689177 0.000214555
0.00497902 0.000724114 0.00024087
0.00668104 0.000729133 0.000244875
0.00839155 0.000728744 0.000244279
0.010105 0.000727525 0.000243199
0.0118194 0.000726765 0.000242541
0.0135339 0.0007264 0.000242234
0.0152485 0.000726257 0.000242115
0.016963 0.000726213 0.000242079
0.0186776 0.000726214 0.00024208
0.0203921 0.00072625 0.00024211
0.0221066 0.000726336 0.000242183
0.023821 0.000726493 0.000242317
0.0255351 0.000726642 0.000242461
0.0272484 0.000726413 0.000242285
0.0289596 0.000723689 0.000240197
0.030665 0.000714681 0.000232734
0.032367 0.000656489 0.000220145
0.034 0.000607743 0.000212683
0 0 0
0.00152814 0.000309011 0.000131546
0.00323806 0.000451782 0.000211235
0.00495649 0.000482679 0.000239204
0.00667344 0.000488358 0.000244201
0.00838947 0.000487199 0.000244062
0.0101047 0.000485694 0.00024315
0.0118194 0.000484779 0.000242538
0.013534 0.000484359 0.000242239
0.0152486 0.000484197 0.000242119
0.0169631 0.000484148 0.000242082
0.0186775 0.00048415 0.000242082
0.0203921 0.000484192 0.000242111
0.0221066 0.000484293 0.00024218
0.0238211 0.000484481 0.000242299
0.0255358 0.000484716 0.000242399
0.0272506 0.000484487 0.000242131
0.0289656 0.000482201 0.000239907
0.0306813 0.000469673 0.000232492
0.0323851 0.000437799 0.0002204
0.034 0.000415539 0.00021312
0 0 0
0.00150806 0.000136694 0.000136694
0.00319032 0.000215697 0.000215697
0.00492974 0.000241496 0.000241496
0.00666136 0.000244962 0.000244962
0.00838496 0.00024424 0.00024424
0.0101032 0.000243162 0.000243162
0.0118191 0.000242522 0.000242522
0.013534 0.000242226 0.000242226
0.0152486 0.000242112 0.000242112
0.0169631 0.000242078 0.000242078
0.0186776 0.000242079 0.000242079
0.0203921 0.000242109 0.000242109
0.0221067 0.000242179 0.000242179
0.0238216 0.000242313 0.000242313
0.025537 0.00024247 0.00024247
0.0272535 0.000242363 0.000242363
0.0289714 0.000240372 0.000240372
0.0306866 0.000232812 0.000232812
0.0323861 0.000219557 0.000219557
0.034 0.000211161 0.000211161
0 0 0
0.00150239 4.7613e-18 0.000139055
0.00317853 1.11092e-17 0.000218106
0.00491837 1.79032e-17 0.000242797
0.00665605 2.2037e-17 0.00024545
0.00838277 2.06844e-17 0.000244368
0.0101025 1.43931e-17 0.000243181
0.0118189 5.45699e-18 0.000242516
0.013534 -3.04904e-18 0.00024222
0.0152486 -9.04448e-18 0.000242108
0.0169631 -1.12337e-17 0.000242076
0.0186776 -1.22693e-17 0.000242078
0.0203921 -1.19845e-17 0.000242107
0.0221068 -1.06315e-17 0.00024218
0.0238218 -9.92398e-18 0.000242324
0.0255375 -6.35073e-18 0.000242516
0.0272547 1.69868e-19 0.000242495
0.0289732 1.01567e-17 0.000240604
0.0306875 1.98498e-17 0.000232919
0.032386 2.56003e-17 0.000219137
0.034 9.72047e-18 0.0002103
0 0 0
0.00150806 -0.000136694 0.000136694
0.00319032 -0.000215697 0.000215697
0.00492974 -0.000241496 0.000241496
0.00666136 -0.000244962 0.000244962
0.00838496 -0.00024424 0.00024424
0.0101032 -0.000243162 0.000243162
0.0118191 -0.000242522 0.000242522
0.013534 -0.000242226 0.000242226
0.0152486 -0.000242112 0.000242112
0.0169631 -0.000242078 0.000242078
0.0186776 -0.000242079 0.000242079
0.0203921 -0.000242109 0.000242109
0.0221067 -0.000242179 0.000242179
0.0238216 -0.000242313 0.000242313
0.025537 -0.00024247 0.00024247
0.0272535 -0.000242363 0.000242363
0.0289714 -0.000240372 0.000240372
0.0306866 -0.000232812 0.000232812
0.0323861 -0.000219557 0.000219557
0.034 -0.000211161 0.000211161
0 0 0
0.00152814 -0.000309011 0.000131546
0.00323806 -0.000451782 0.000211235
0.00495649 -0.000482679 0.000239204
0.00667344 -0.000488358 0.000244201
0.00838947 -0.000487199 0.000244062
0.0101047 -0.000485694 0.00024315
0.0118194 -0.000484779 0.000242538
0.013534 -0.000484359 0.000242239
0.0152486 -0.000484197 0.000242119
0.0169631 -0.000484148 0.000242082
0.0186775 -0.00048415 0.000242082
0.0203921 -0.000484192 0.000242111
0.0221066 -0.000484293 0.00024218
0.0238211 -0.000484481 0.000242299
0.0255358 -0.000484716 0.000242399
0.0272506 -0.000484487 0.000242131
0.0289656 -0.000482201 0.000239907
0.0306813 -0.000469673 0.000232492
0.0323851 -0.000437799 0.0002204
0.034 -0.000415539 0.00021312
0 0 0
0.00166282 -0.000586152 0.00013605
0.00329773 -0.000689177 0.000214555
0.00497902 -0.000724114 0.00024087
0.00668104 -0.000729133 0.000244875
0.00839155 -0.000728744 0.000244279
0.010105 -0.000727525 0.000243199
0.0118194 -0.000726765 0.000242541
0.0135339 -0.0007264 0.000242234
0.0152485 -0.000726257 0.000242115
0.016963 -0.000726213 0.000242079
0.0186776 -0.000726214 0.00024208
0.0203921 -0.00072625 0.00024211
0.0221066 -0.000726336 0.000242183
0.023821 -0.000726493 0.000242317
0.0255351 -0.000726642 0.000242461
0.0272484 -0.000726413 0.000242285
0.0289596 -0.000723689 0.000240197
0.030665 -0.000714681 0.000232734
0.032367 -0.000656489 0.000220145
0.034 -0.000607743 0.000212683
0 0 0
0.00165756 0.000594174 2.34257e-18
0.00328555 0.000697555 4.41293e-18
0.00496704 0.000727546 5.53518e-18
0.00667517 0.000730453 5.15061e-18
0.00838906 0.000729075 4.47944e-18
0.0101042 0.000727576 3.18031e-18
0.0118191 0.000726749 1.95618e-18
0.0135339 0.000726383 -4.59218e-19
0.0152485 0.000726246 -2.74691e-18
0.016963 0.000726207 -3.67386e-18
0.0186776 0.00072621 -4.38669e-18
0.0203921 0.000726247 -4.20414e-18
0.0221066 0.000726338 -1.00335e-18
0.0238212 0.000726519 -8.58164e-19
0.0255357 0.00072676 1.98475e-18
0.0272497 0.00072675 4.55575e-18
0.0289613 0.000724479 4.73041e-18
0.0306658 0.000715285 3.37192e-18
0.0323666 0.000655244 1.83422e-18
0.034 0.000604895 3.09709e-18
0 0 0
0.00152201 0.000314519 6.76007e-18
0.00322653 0.000457073 1.16511e-17
0.00494544 0.000485356 1.2241e-17
0.00666807 0.000489312 1.02891e-17
0.00838722 0.000487457 7.65503e-18
0.0101039 0.00048573 5.42526e-18
0.0118192 0.000484768 3.3775e-18
0.013534 0.000484346 -7.3999e-19
0.0152486 0.000484189 -6.03396e-18
0.0169631 0.000484144 -1.07691e-17
0.0186776 0.000484148 -1.31401e-17
0.0203921 0.000484189 -1.14316e-17
0.0221066 0.000484294 -4.94427e-18
0.0238214 0.000484502 2.54336e-18
0.0255364 0.000484804 1.02571e-17
0.0272518 0.000484751 1.38376e-17
0.0289673 0.00048272 1.06738e-17
0.0306824 0.000469987 2.93659e-18
0.0323851 0.000436916 -2.12012e-18
0.034 0.000413664 -1.0425e-18
0 0 0
0.00150239 0.000139055 7.81183e-18
0.00317853 0.000218106 1.33772e-17
0.00491837 0.000242797 1.43193e-17
0.00665605 0.00024545 1.19882e-17
0.00838277 0.000244368 9.21751e-18
0.0101025 0.000243181 6.9701e-18
0.0118189 0.000242516 4.33719e-18
0.013534 0.00024222 -7.96811e-19
0.0152486 0.000242108 -6.79991e-18
0.0169631 0.000242076 -1.15431e-17
0.0186776 0.000242078 -1.38013e-17
0.0203921 0.000242107 -1.29422e-17
0.0221068 0.00024218 -6.85231e-18
0.0238218 0.000242324 -4.93549e-19
0.0255375 0.000242516 7.70356e-18
0.0272547 0.000242495 1.31115e-17
0.0289732 0.000240604 1.15025e-17
0.0306875 0.000232919 6.0292e-18
0.032386 0.000219137 9.15911e-19
0.034 0.0002103 -2.95965e-19
0 0 0
0.0014968 -8.80741e-19 2.4819e-18
0.00316661 -7.15857e-19 2.86618e-18
0.00490683 3.77109e-19 6.93636e-19
0.00665069 1.42292e-18 -1.63752e-18
0.0083806 1.33422e-18 -1.77328e-18
0.0101018 6.71147e-19 -1.96614e-19
0.0118187 2.56529e-19 1.36951e-18
0.0135339 7.4814e-19 1.52252e-18
0.0152486 8.92391e-19 7.14939e-19
0.0169631 1.83664e-18 7.59651e-19
0.0186776 1.19187e-18 3.46227e-19
0.0203921 1.28621e-18 -3.75462e-19
0.0221068 2.05051e-18 -2.31947e-19
0.023822 2.35566e-18 -1.37175e-18
0.0255381 1.71233e-18 7.35266e-19
0.027256 6.93293e-19 3.46953e-18
0.028975 8.97216e-19 2.90515e-18
0.0306885 8.93101e-19 3.17549e-19
0.0323857 2.4402e-18 -2.4731e-18
0.034 2.01776e-18 -1.51005e-18
0 0 0
0.00150239 -0.000139055 -3.65457e-18
0.00317853 -0.000218106 -8.28086e-18
0.00491837 -0.000242797 -1.28474e-17
0.00665605 -0.00024545 -1.44931e-17
0.00838277 -0.000244368 -1.25187e-17
0.0101025 -0.000243181 -7.42551e-18
0.0118189 -0.000242516 -1.59674e-18
0.013534 -0.00024222 3.6753e-18
0.0152486 -0.000242108 8.469e-18
0.0169631 -0.000242076 1.27996e-17
0.0186776 -0.000242078 1.46967e-17
0.0203921 -0.000242107 1.23557e-17
0.0221068 -0.00024218 7.04065e-18
0.0238218 -0.000242324 -1.47021e-18
0.0255375 -0.000242516 -6.07698e-18
0.0272547 -0.000242495 -6.7085e-18
0.0289732 -0.000240604 -6.02642e-18
0.0306875 -0.000232919 -5.1093e-18
0.032386 -0.000219137 -5.68793e-18
0.034 -0.0002103 -1.46056e-18
0 0 0
0.00152201 -0.000314519 -4.00528e-18
0.00322653 -0.000457073 -8.37668e-18
0.00494544 -0.000485356 -1.14758e-17
0.00666807 -0.000489312 -1.18696e-17
0.00838722 -0.000487457 -9.61212e-18
0.0101039 -0.00048573 -5.85146e-18
0.0118192 -0.000484768 -1.80593e-18
0.013534 -0.000484346 2.53463e-18
0.0152486 -0.000484189 7.26796e-18
0.0169631 -0.000484144 1.17241e-17
0.0186776 -0.000484148 1.40325e-17
0.0203921 -0.000484189 1.1418e-17
0.0221066 -0.000484294 5.76284e-18
0.0238214 -0.000484502 -3.92669e-18
0.0255364 -0.000484804 -9.31735e-18
0.0272518 -0.000484751 -9.08899e-18
0.0289673 -0.00048272 -6.43812e-18
0.0306824 -0.000469987 -2.69775e-18
0.0323851 -0.000436916 -7.37763e-19
0.034 -0.000413664 -6.31128e-19
0 0 0
0.00165756 -0.000594174 -1.4823e-18
0.00328555 -0.000697555 -3.38606e-18
0.00496704 -0.000727546 -4.8674e-18
0.00667517 -0.000730453 -5.38874e-18
0.00838906 -0.000729075 -4.58097e-18
0.0101042 -0.000727576 -3.58052e-18
0.0118191 -0.000726749 -7.80374e-19
0.0135339 -0.000726383 1.18164e-18
0.0152485 -0.000726246 3.7142e-18
0.016963 -0.000726207 4.56747e-18
0.0186776 -0.00072621 5.03543e-18
0.0203921 -0.000726247 3.93238e-18
0.0221066 -0.000726338 3.25343e-18
0.0238212 -0.000726519 1.78523e-19
0.0255357 -0.00072676 -1.31983e-18
0.0272497 -0.00072675 -1.7829e-18
0.0289613 -0.000724479 -2.56382e-18
0.0306658 -0.000715285 -3.34146e-18
0.0323666 -0.000655244 -3.1429e-18
0.034 -0.000604895 -2.79332e-18
0 0 0
0.00166282 0.000586152 -0.00013605
0.00329773 0.000689177 -0.000214555
0.00497902 0.000724114 -0.00024087
0.00668104 0.000729133 -0.000244875
0.00839155 0.000728744 -0.000244279
0.010105 0.000727525 -0.000243199
0.0118194 0.000726765 -0.000242541
0.0135339 0.0007264 -0.000242234
0.0152485 0.000726257 -0.000242115
0.016963 0.000726213 -0.000242079
0.0186776 0.000726214 -0.00024208
0.0203921 0.00072625 -0.00024211
0.0221066 0.000726336 -0.000242183
0.023821 0.000726493 -0.000242317
0.0255351 0.000726642 -0.000242461