<?xml version="1.0"?>
<VTKFile type="UnstructuredGrid" version="0.1" byte_order="LittleEndian">
<UnstructuredGrid>
<Piece NumberOfPoints="1029" NumberOfCells="720">
<Points>
<DataArray type="Float32" NumberOfComponents="3" format="ascii">
0 0 0
0.005 0 0
0.01 0 0
0.015 0 0
0.02 0 0
0.025 0 0
0.03 0 0
0.035 0 0
0.04 0 0
0.045 0 0
0.05 0 0
0.055 0 0
0.06 0 0
0.065 0 0
0.07 0 0
0.075 0 0
0.08 0 0
0.085 0 0
0.09 0 0
0.095 0 0
0.1 0 0
0 0.005 0
0.005 0.005 0
0.01 0.005 0
0.015 0.005 0
0.02 0.005 0
0.025 0.005 0
0.03 0.005 0
0.035 0.005 0
0.04 0.005 0
0.045 0.005 0
0.05 0.005 0
0.055 0.005 0
0.06 0.005 0
0.065 0.005 0
0.07 0.005 0
0.075 0.005 0
0.08 0.005 0
0.085 0.005 0
0.09 0.005 0
0.095 0.005 0
0.1 0.005 0
0 0.01 0
0.005 0.01 0
0.01 0.01 0
0.015 0.01 0
0.02 0.01 0
0.025 0.01 0
0.03 0.01 0
0.035 0.01 0
0.04 0.01 0
0.045 0.01 0
0.05 0.01 0
0.055 0.01 0
0.06 0.01 0
0.065 0.01 0
0.07 0.01 0
0.075 0.01 0
0.08 0.01 0
0.085 0.01 0
0.09 0.01 0
0.095 0.01 0
0.1 0.01 0
0 0.015 0
0.005 0.015 0
0.01 0.015 0
0.015 0.015 0
0.02 0.015 0
0.025 0.015 0
0.03 0.015 0
0.035 0.015 0
0.04 0.015 0
0.045 0.015 0
0.05 0.015 0
0.055 0.015 0
0.06 0.015 0
0.065 0.015 0
0.07 0.015 0
0.075 0.015 0
0.08 0.015 0
0.085 0.015 0
0.09 0.015 0
0.095 0.015 0
0.1 0.015 0
0 0.02 0
0.005 0.02 0
0.01 0.02 0
0.015 0.02 0
0.02 0.02 0
0.025 0.02 0
0.03 0.02 0
0.035 0.02 0
0.04 0.02 0
0.045 0.02 0
0.05 0.02 0
0.055 0.02 0
0.06 0.02 0
0.065 0.02 0
0.07 0.02 0
0.075 0.02 0
0.08 0.02 0
0.085 0.02 0
0.09 0.02 0
0.095 0.02 0
0.1 0.02 0
0 0.025 0
0.005 0.025 0
0.01 0.025 0
0.015 0.025 0
0.02 0.025 0
0.025 0.025 0
0.03 0.025 0
0.035 0.025 0
0.04 0.025 0
0.045 0.025 0
0.05 0.025 0
0.055 0.025 0
0.06 0.025 0
0.065 0.025 0
0.07 0.025 0
0.075 0.025 0
0.08 0.025 0
0.085 0.025 0
0.09 0.025 0
0.095 0.025 0
0.1 0.025 0
0 0.03 0
0.005 0.03 0
0.01 0.03 0
0.015 0.03 0
0.02 0.03 0
0.025 0.03 0
0.03 0.03 0
0.035 0.03 0
0.04 0.03 0
0.045 0.03 0
0.05 0.03 0
0.055 0.03 0
0.06 0.03 0
0.065 0.03 0
0.07 0.03 0
0.075 0.03 0
0.08 0.03 0
0.085 0.03 0
0.09 0.03 0
0.095 0.03 0
0.1 0.03 0
0 0 0.005
0.005 0 0.005
0.01 0 0.005
0.015 0 0.005
0.02 0 0.005
0.025 0 0.005
0.03 0 0.005
0.035 0 0.005
0.04 0 0.005
0.045 0 0.005
0.05 0 0.005
0.055 0 0.005
0.06 0 0.005
0.065 0 0.005
0.07 0 0.005
0.075 0 0.005
0.08 0 0.005
0.085 0 0.005
0.09 0 0.005
0.095 0 0.005
0.1 0 0.005
0 0.005 0.005
0.005 0.005 0.005
0.01 0.005 0.005
0.015 0.005 0.005
0.02 0.005 0.005
0.025 0.005 0.005
0.03 0.005 0.005
0.035 0.005 0.005
0.04 0.005 0.005
0.045 0.005 0.005
0.05 0.005 0.005
0.055 0.005 0.005
0.06 0.005 0.005
0.065 0.005 0.005
0.07 0.005 0.005
0.075 0.005 0.005
0.08 0.005 0.005
0.085 0.005 0.005
0.09 0.005 0.005
0.095 0.005 0.005
0.1 0.005 0.005
0 0.01 0.005
0.005 0.01 0.005
0.01 0.01 0.005
0.015 0.01 0.005
0.02 0.01 0.005
0.025 0.01 0.005
0.03 0.01 0.005
0.035 0.01 0.005
0.04 0.01 0.005
0.045 0.01 0.005
0.05 0.01 0.005
0.055 0.01 0.005
0.06 0.01 0.005
0.065 0.01 0.005
0.07 0.01 0.005
0.075 0.01 0.005
0.08 0.01 0.005
0.085 0.01 0.005
0.09 0.01 0.005
0.095 0.01 0.005
0.1 0.01 0.005
0 0.015 0.005
0.005 0.015 0.005
0.01 0.015 0.005
0.015 0.015 0.005
0.02 0.015 0.005
0.025 0.015 0.005
0.03 0.015 0.005
0.035 0.015 0.005
0.04 0.015 0.005
0.045 0.015 0.005
0.05 0.015 0.005
0.055 0.015 0.005
0.06 0.015 0.005
0.065 0.015 0.005
0.07 0.015 0.005
0.075 0.015 0.005
0.08 0.015 0.005
0.085 0.015 0.005
0.09 0.015 0.005
0.095 0.015 0.005
0.1 0.015 0.005
0 0.02 0.005
0.005 0.02 0.005
0.01 0.02 0.005
0.015 0.02 0.005
0.02 0.02 0.005
0.025 0.02 0.005
0.03 0.02 0.005
0.035 0.02 0.005
0.04 0.02 0.005
0.045 0.02 0.005
0.05 0.02 0.005
0.055 0.02 0.005
0.06 0.02 0.005
0.065 0.02 0.005
0.07 0.02 0.005
0.075 0.02 0.005
0.08 0.02 0.005
0.085 0.02 0.005
0.09 0.02 0.005
0.095 0.02 0.005
0.1 0.02 0.005
0 0.025 0.005
0.005 0.025 0.005
0.01 0.025 0.005
0.015 0.025 0.005
0.02 0.025 0.005
0.025 0.025 0.005
0.03 0.025 0.005
0.035 0.025 0.005
0.04 0.025 0.005
0.045 0.025 0.005
0.05 0.025 0.005
0.055 0.025 0.005
0.06 0.025 0.005
0.065 0.025 0.005
0.07 0.025 0.005
0.075 0.025 0.005
0.08 0.025 0.005
0.085 0.025 0.005
0.09 0.025 0.005
0.095 0.025 0.005
0.1 0.025 0.005
0 0.03 0.005
0.005 0.03 0.005
0.01 0.03 0.005
0.015 0.03 0.005
0.02 0.03 0.005
0.025 0.03 0.005
0.03 0.03 0.005
0.035 0.03 0.005
0.04 0.03 0.005
0.045 0.03 0.005
0.05 0.03 0.005
0.055 0.03 0.005
0.06 0.03 0.005
0.065 0.03 0.005
0.07 0.03 0.005
0.075 0.03 0.005
0.08 0.03 0.005
0.085 0.03 0.005
0.09 0.03 0.005
0.095 0.03 0.005
0.1 0.03 0.005
0 0 0.01
0.005 0 0.01
0.01 0 0.01
0.015 0 0.01
0.02 0 0.01
0.025 0 0.01
0.03 0 0.01
0.035 0 0.01
0.04 0 0.01
0.045 0 0.01
0.05 0 0.01
0.055 0 0.01
0.06 0 0.01
0.065 0 0.01
0.07 0 0.01
0.075 0 0.01
0.08 0 0.01
0.085 0 0.01
0.09 0 0.01
0.095 0 0.01
0.1 0 0.01
0 0.005 0.01
0.005 0.005 0.01
0.01 0.005 0.01
0.015 0.005 0.01
0.02 0.005 0.01
0.025 0.005 0.01
0.03 0.005 0.01
0.035 0.005 0.01
0.04 0.005 0.01
0.045 0.005 0.01
0.05 0.005 0.01
0.055 0.005 0.01
0.06 0.005 0.01
0.065 0.005 0.01
0.07 0.005 0.01
0.075 0.005 0.01
0.08 0.005 0.01
0.085 0.005 0.01
0.09 0.005 0.01
0.095 0.005 0.01
0.1 0.005 0.01
0 0.01 0.01
0.005 0.01 0.01
0.01 0.01 0.01
0.015 0.01 0.01
0.02 0.01 0.01
0.025 0.01 0.01
0.03 0.01 0.01
0.035 0.01 0.01
0.04 0.01 0.01
0.045 0.01 0.01
0.05 0.01 0.01
0.055 0.01 0.01
0.06 0.01 0.01
0.065 0.01 0.01
0.07 0.01 0.01
0.075 0.01 0.01
0.08 0.01 0.01
0.085 0.01 0.01
0.09 0.01 0.01
0.095 0.01 0.01
0.1 0.01 0.01
0 0.015 0.01
0.005 0.015 0.01
0.01 0.015 0.01
0.015 0.015 0.01
0.02 0.015 0.01
0.025 0.015 0.01
0.03 0.015 0.01
0.035 0.015 0.01
0.04 0.015 0.01
0.045 0.015 0.01
0.05 0.015 0.01
0.055 0.015 0.01
0.06 0.015 0.01
0.065 0.015 0.01
0.07 0.015 0.01
0.075 0.015 0.01
0.08 0.015 0.01
0.085 0.015 0.01
0.09 0.015 0.01
0.095 0.015 0.01
0.1 0.015 0.01
0 0.02 0.01
0.005 0.02 0.01
0.01 0.02 0.01
0.015 0.02 0.01
0.02 0.02 0.01
0.025 0.02 0.01
0.03 0.02 0.01
0.035 0.02 0.01
0.04 0.02 0.01
0.045 0.02 0.01
0.05 0.02 0.01
0.055 0.02 0.01
0.06 0.02 0.01
0.065 0.02 0.01
0.07 0.02 0.01
0.075 0.02 0.01
0.08 0.02 0.01
0.085 0.02 0.01
0.09 0.02 0.01
0.095 0.02 0.01
0.1 0.02 0.01
0 0.025 0.01
0.005 0.025 0.01
0.01 0.025 0.01
0.015 0.025 0.01
0.02 0.025 0.01
0.025 0.025 0.01
0.03 0.025 0.01
0.035 0.025 0.01
0.04 0.025 0.01
0.045 0.025 0.01
0.05 0.025 0.01
0.055 0.025 0.01
0.06 0.025 0.01
0.065 0.025 0.01
0.07 0.025 0.01
0.075 0.025 0.01
0.08 0.025 0.01
0.085 0.025 0.01
0.09 0.025 0.01
0.095 0.025 0.01
0.1 0.025 0.01
0 0.03 0.01
0.005 0.03 0.01
0.01 0.03 0.01
0.015 0.03 0.01
0.02 0.03 0.01
0.025 0.03 0.01
0.03 0.03 0.01
0.035 0.03 0.01
0.04 0.03 0.01
0.045 0.03 0.01
0.05 0.03 0.01
0.055 0.03 0.01
0.06 0.03 0.01
0.065 0.03 0.01
0.07 0.03 0.01
0.075 0.03 0.01
0.08 0.03 0.01
0.085 0.03 0.01
0.09 0.03 0.01
0.095 0.03 0.01
0.1 0.03 0.01
0 0 0.015
0.005 0 0.015
0.01 0 0.015
0.015 0 0.015
0.02 0 0.015
0.025 0 0.015
0.03 0 0.015
0.035 0 0.015
0.04 0 0.015
0.045 0 0.015
0.05 0 0.015
0.055 0 0.015
0.06 0 0.015
0.065 0 0.015
0.07 0 0.015
0.075 0 0.015
0.08 0 0.015
0.085 0 0.015
0.09 0 0.015
0.095 0 0.015
0.1 0 0.015
0 0.005 0.015
0.005 0.005 0.015
0.01 0.005 0.015
0.015 0.005 0.015
0.02 0.005 0.015
0.025 0.005 0.015
0.03 0.005 0.015
0.035 0.005 0.015
0.04 0.005 0.015
0.045 0.005 0.015
0.05 0.005 0.015
0.055 0.005 0.015
0.06 0.005 0.015
0.065 0.005 0.015
0.07 0.005 0.015
0.075 0.005 0.015
0.08 0.005 0.015
0.085 0.005 0.015
0.09 0.005 0.015
0.095 0.005 0.015
0.1 0.005 0.015
0 0.01 0.015
0.005 0.01 0.015
0.01 0.01 0.015
0.015 0.01 0.015
0.02 0.01 0.015
0.025 0.01 0.015
0.03 0.01 0.015
0.035 0.01 0.015
0.04 0.01 0.015
0.045 0.01 0.015
0.05 0.01 0.015
0.055 0.01 0.015
0.06 0.01 0.015
0.065 0.01 0.015
0.07 0.01 0.015
0.075 0.01 0.015
0.08 0.01 0.015
0.085 0.01 0.015
0.09 0.01 0.015
0.095 0.01 0.015
0.1 0.01 0.015
0 0.015 0.015
0.005 0.015 0.015
0.01 0.015 0.015
0.015 0.015 0.015
0.02 0.015 0.015
0.025 0.015 0.015
0.03 0.015 0.015
0.035 0.015 0.015
0.04 0.015 0.015
0.045 0.015 0.015
0.05 0.015 0.015
0.055 0.015 0.015
0.06 0.015 0.015
0.065 0.015 0.015
0.07 0.015 0.015
0.075 0.015 0.015
0.08 0.015 0.015
0.085 0.015 0.015
0.09 0.015 0.015
0.095 0.015 0.015
0.1 0.015 0.015
0 0.02 0.015
0.005 0.02 0.015
0.01 0.02 0.015
0.015 0.02 0.015
0.02 0.02 0.015
0.025 0.02 0.015
0.03 0.02 0.015
0.035 0.02 0.015
0.04 0.02 0.015
0.045 0.02 0.015
0.05 0.02 0.015
0.055 0.02 0.015
0.06 0.02 0.015
0.065 0.02 0.015
0.07 0.02 0.015
0.075 0.02 0.015
0.08 0.02 0.015
0.085 0.02 0.015
0.09 0.02 0.015
0.095 0.02 0.015
0.1 0.02 0.015
0 0.025 0.015
0.005 0.025 0.015
0.01 0.025 0.015
0.015 0.025 0.015
0.02 0.025 0.015
0.025 0.025 0.015
0.03 0.025 0.015
0.035 0.025 0.015
0.04 0.025 0.015
0.045 0.025 0.015
0.05 0.025 0.015
0.055 0.025 0.015
0.06 0.025 0.015
0.065 0.025 0.015
0.07 0.025 0.015
0.075 0.025 0.015
0.08 0.025 0.015
0.085 0.025 0.015
0.09 0.025 0.015
0.095 0.025 0.015
0.1 0.025 0.015
0 0.03 0.015
0.005 0.03 0.015
0.01 0.03 0.015
0.015 0.03 0.015
0.02 0.03 0.015
0.025 0.03 0.015
0.03 0.03 0.015
0.035 0.03 0.015
0.04 0.03 0.015
0.045 0.03 0.015
0.05 0.03 0.015
0.055 0.03 0.015
0.06 0.03 0.015
0.065 0.03 0.015
0.07 0.03 0.015
0.075 0.03 0.015
0.08 0.03 0.015
0.085 0.03 0.015
0.09 0.03 0.015
0.095 0.03 0.015
0.1 0.03 0.015
0 0 0.02
0.005 0 0.02
0.01 0 0.02
0.015 0 0.02
0.02 0 0.02
0.025 0 0.02
0.03 0 0.02
0.035 0 0.02
0.04 0 0.02
0.045 0 0.02
0.05 0 0.02
0.055 0 0.02
0.06 0 0.02
0.065 0 0.02
0.07 0 0.02
0.075 0 0.02
0.08 0 0.02
0.085 0 0.02
0.09 0 0.02
0.095 0 0.02
0.1 0 0.02
0 0.005 0.02
0.005 0.005 0.02
0.01 0.005 0.02
0.015 0.005 0.02
0.02 0.005 0.02
0.025 0.005 0.02
0.03 0.005 0.02
0.035 0.005 0.02
0.04 0.005 0.02
0.045 0.005 0.02
0.05 0.005 0.02
0.055 0.005 0.02
0.06 0.005 0.02
0.065 0.005 0.02
0.07 0.005 0.02
0.075 0.005 0.02
0.08 0.005 0.02
0.085 0.005 0.02
0.09 0.005 0.02
0.095 0.005 0.02
0.1 0.005 0.02
0 0.01 0.02
0.005 0.01 0.02
0.01 0.01 0.02
0.015 0.01 0.02
0.02 0.01 0.02
0.025 0.01 0.02
0.03 0.01 0.02
0.035 0.01 0.02
0.04 0.01 0.02
0.045 0.01 0.02
0.05 0.01 0.02
0.055 0.01 0.02
0.06 0.01 0.02
0.065 0.01 0.02
0.07 0.01 0.02
0.075 0.01 0.02
0.08 0.01 0.02
0.085 0.01 0.02
0.09 0.01 0.02
0.095 0.01 0.02
[...]
<PointData Vectors="Displacement">
<DataArray type="Float32" Name="Displacement" NumberOfComponents="3" format="ascii">
0 0 0
0.000839297 0.000223988 0.000223988
0.00154996 0.000281301 0.000281301
0.00226745 0.000307225 0.000307225
0.00300233 0.000314419 0.000314419
0.00374962 0.00031581 0.00031581
0.00450379 0.00031544 0.00031544
0.00526112 0.000314893 0.000314893
0.00601968 0.000314522 0.000314522
0.00677864 0.000314337 0.000314337
0.00753768 0.000314279 0.000314279
0.0082967 0.000314313 0.000314313
0.0090556 0.000314441 0.000314441
0.00981413 0.00031467 0.00031467
0.0105717 0.000314935 0.000314935
0.011327 0.000314828 0.000314828
0.0120778 0.00031316 0.00031316
0.0128215 0.000306204 0.000306204
0.0135569 0.000288659 0.000288659
0.0143089 0.000221954 0.000221954
0.015 0.000172916 0.000172916
0 0 0
0.000774721 0.000117578 0.000225467
0.00151512 0.000185 0.000285172
0.00225124 0.000205732 0.000308502
0.00299592 0.000211443 0.000314981
0.00374754 0.000211719 0.000315967
0.00450334 0.000210909 0.000315467
0.00526116 0.000210193 0.000314883
0.00601979 0.000209777 0.000314509
0.00677871 0.000209584 0.000314327
0.00753769 0.000209528 0.000314272
0.00829666 0.000209566 0.000314306
0.00905555 0.000209706 0.000314434
0.00981419 0.000209982 0.000314672
0.0105722 0.000210378 0.000314972
0.0113288 0.000210618 0.000314984
0.0120828 0.000209522 0.000313576
0.012833 0.000204138 0.000307377
0.0135812 0.000184929 0.000290651
0.014334 0.000146727 0.000219525
0.015 0.000123262 0.000165155
0 0 0
0.00076564 5.31767e-05 0.000231935
0.00149305 8.85371e-05 0.000290355
0.0022361 0.000103248 0.000311603
0.00298781 0.000106461 0.000316248
0.00374397 0.000106419 0.000316405
0.00450202 0.000105751 0.00031557
0.00526077 0.000105229 0.000314882
0.00601973 0.000104938 0.000314488
0.00677872 0.000104807 0.000314308
0.00753771 0.00010477 0.000314257
0.00829668 0.000104796 0.000314293
0.00905565 0.000104893 0.000314426
0.00981456 0.000105089 0.000314691
0.0105733 0.000105391 0.000315089
0.0113314 0.00010563 0.000315365
0.0120881 0.000105087 0.000314574
0.0128417 0.000101248 0.000309261
0.0135882 9.01218e-05 0.000292587
0.014336 7.36085e-05 0.000215855
0.015 6.42052e-05 0.000155277
0 0 0
0.000763304 -7.00834e-18 0.000233779
0.00148789 -1.21582e-17 0.000292822
0.00223024 -1.30419e-17 0.000312953
0.00298439 -1.06772e-17 0.000316894
0.00374231 -6.45301e-18 0.000316631
0.00450135 -2.24237e-18 0.000315631
0.00526055 6.2649e-19 0.000314886
0.00601968 1.78786e-18 0.000314479
0.00677872 6.96994e-19 0.0003143
0.00753771 -1.53595e-18 0.00031425
0.0082967 -5.34295e-18 0.000314287
0.00905571 -9.8783e-18 0.000314423
0.00981475 -1.39957e-17 0.000314704
0.0105738 -1.6625e-17 0.000315152
0.0113326 -1.60521e-17 0.000315563
0.0120903 -1.24771e-17 0.000315031
0.0128441 -7.25795e-18 0.000310068
0.0135894 -2.07161e-18 0.000292951
0.0143357 1.088e-18 0.000214244
0.015 -2.96313e-19 0.000152042
0 0 0
0.00076564 -5.31767e-05 0.000231935
0.00149305 -8.85371e-05 0.000290355
0.0022361 -0.000103248 0.000311603
0.00298781 -0.000106461 0.000316248
0.00374397 -0.000106419 0.000316405
0.00450202 -0.000105751 0.00031557
0.00526077 -0.000105229 0.000314882
0.00601973 -0.000104938 0.000314488
0.00677872 -0.000104807 0.000314308
0.00753771 -0.00010477 0.000314257
0.00829668 -0.000104796 0.000314293
0.00905565 -0.000104893 0.000314426
0.00981456 -0.000105089 0.000314691
0.0105733 -0.000105391 0.000315089
0.0113314 -0.00010563 0.000315365
0.0120881 -0.000105087 0.000314574
0.0128417 -0.000101248 0.000309261
0.0135882 -9.01218e-05 0.000292587
0.014336 -7.36085e-05 0.000215855
0.015 -6.42052e-05 0.000155277
0 0 0
0.000774721 -0.000117578 0.000225467
0.00151512 -0.000185 0.000285172
0.00225124 -0.000205732 0.000308502
0.00299592 -0.000211443 0.000314981
0.00374754 -0.000211719 0.000315967
0.00450334 -0.000210909 0.000315467
0.00526116 -0.000210193 0.000314883
0.00601979 -0.000209777 0.000314509
0.00677871 -0.000209584 0.000314327
0.00753769 -0.000209528 0.000314272
0.00829666 -0.000209566 0.000314306
0.00905555 -0.000209706 0.000314434
0.00981419 -0.000209982 0.000314672
0.0105722 -0.000210378 0.000314972
0.0113288 -0.000210618 0.000314984
0.0120828 -0.000209522 0.000313576
0.012833 -0.000204138 0.000307377
0.0135812 -0.000184929 0.000290651
0.014334 -0.000146727 0.000219525
0.015 -0.000123262 0.000165155
0 0 0
0.000839297 -0.000223988 0.000223988
0.00154996 -0.000281301 0.000281301
0.00226745 -0.000307225 0.000307225
0.00300233 -0.000314419 0.000314419
0.00374962 -0.00031581 0.00031581
0.00450379 -0.00031544 0.00031544
0.00526112 -0.000314893 0.000314893
0.00601968 -0.000314522 0.000314522
0.00677864 -0.000314337 0.000314337
0.00753768 -0.000314279 0.000314279
0.0082967 -0.000314313 0.000314313
0.0090556 -0.000314441 0.000314441
0.00981413 -0.00031467 0.00031467
0.0105717 -0.000314935 0.000314935
0.011327 -0.000314828 0.000314828
0.0120778 -0.00031316 0.00031316
0.0128215 -0.000306204 0.000306204
0.0135569 -0.000288659 0.000288659
0.0143089 -0.000221954 0.000221954
0.015 -0.000172916 0.000172916
0 0 0
0.000774721 0.000225467 0.000117578
0.00151512 0.000285172 0.000185
0.00225124 0.000308502 0.000205732
0.00299592 0.000314981 0.000211443
0.00374754 0.000315967 0.000211719
0.00450334 0.000315467 0.000210909
0.00526116 0.000314883 0.000210193
0.00601979 0.000314509 0.000209777
0.00677871 0.000314327 0.000209584
0.00753769 0.000314272 0.000209528
0.00829666 0.000314306 0.000209566
0.00905555 0.000314434 0.000209706
0.00981419 0.000314672 0.000209982
0.0105722 0.000314972 0.000210378
0.0113288 0.000314984 0.000210618
0.0120828 0.000313576 0.000209522
0.012833 0.000307377 0.000204138
0.0135812 0.000290651 0.000184929
0.014334 0.000219525 0.000146727
0.015 0.000165155 0.000123262
0 0 0
0.000708441 0.000116881 0.000116881
0.00148056 0.00018463 0.00018463
0.00223598 0.000205523 0.000205523
0.00298997 0.000211287 0.000211287
0.00374567 0.000211655 0.000211655
0.00450298 0.000210883 0.000210883
0.00526122 0.000210186 0.000210186
0.00601991 0.000209776 0.000209776
0.00677878 0.000209585 0.000209585
0.0075377 0.000209529 0.000209529
0.00829663 0.000209567 0.000209567
0.0090555 0.000209704 0.000209704
0.00981423 0.000209974 0.000209974
0.0105726 0.000210358 0.000210358
0.0113305 0.000210573 0.000210573
0.0120874 0.00020945 0.00020945
0.0128442 0.000204114 0.000204114
0.0136066 0.000184927 0.000184927
0.0143611 0.000146482 0.000146482
0.015 0.000122465 0.000122465
0 0 0
0.000698904 5.18472e-05 0.000119545
0.00145877 8.73292e-05 0.000187719
0.00222142 0.000102499 0.000207326
0.00298236 0.000106103 0.000212066
0.00374235 0.000106275 0.000211912
0.00450176 0.000105706 0.000210941
0.00526087 0.000105221 0.000210183
0.00601986 0.00010494 0.000209762
0.00677879 0.000104811 0.000209573
0.00753772 0.000104773 0.00020952
0.00829665 0.000104799 0.000209558
0.00905559 0.000104893 0.000209699
0.00981456 0.000105078 0.000209984
0.0105736 0.00010535 0.000210427
0.0113329 0.000105519 0.000210812
0.0120925 0.000104854 0.000210059
0.012853 0.000100882 0.000205237
0.0136147 8.99262e-05 0.000185601
0.0143643 7.41103e-05 0.000144035
0.015 6.51001e-05 0.000117131
0 0 0
0.00069622 -3.15947e-17 0.000120811
0.00145371 -5.43919e-17 0.000189163
0.00221586 -6.04917e-17 0.000208275
0.00297915 -5.07593e-17 0.0002125
0.00374082 -3.29671e-17 0.00021207
0.00450114 -1.58462e-17 0.000210981
0.00526067 -5.0626e-18 0.000210185
0.00601981 -1.56508e-18 0.000209756
0.00677879 -5.19797e-18 0.000209567
0.00753773 -1.42897e-17 0.000209515
0.00829666 -2.91535e-17 0.000209554
0.00905564 -4.71385e-17 0.000209697
0.00981474 -6.34327e-17 0.000209993
0.0105741 -7.26553e-17 0.000210471
0.011334 -6.89495e-17 0.000210949
0.0120946 -5.24433e-17 0.000210383
0.0128555 -2.78411e-17 0.000205732
0.0136163 -3.91838e-18 0.000185734
0.0143646 9.65571e-18 0.000142919
0.015 3.55313e-18 0.000115036
0 0 0
0.000698904 -5.18472e-05 0.000119545
0.00145877 -8.73292e-05 0.000187719
0.00222142 -0.000102499 0.000207326
0.00298236 -0.000106103 0.000212066
0.00374235 -0.000106275 0.000211912
0.00450176 -0.000105706 0.000210941
0.00526087 -0.000105221 0.000210183
0.00601986 -0.00010494 0.000209762
0.00677879 -0.000104811 0.000209573
0.00753772 -0.000104773 0.00020952
0.00829665 -0.000104799 0.000209558
0.00905559 -0.000104893 0.000209699
0.00981456 -0.000105078 0.000209984
0.0105736 -0.00010535 0.000210427
0.0113329 -0.000105519 0.000210812
0.0120925 -0.000104854 0.000210059
0.012853 -0.000100882 0.000205237
0.0136147 -8.99262e-05 0.000185601
0.0143643 -7.41103e-05 0.000144035
0.015 -6.51001e-05 0.000117131
0 0 0
0.000708441 -0.000116881 0.000116881
0.00148056 -0.00018463 0.00018463
0.00223598 -0.000205523 0.000205523
0.00298997 -0.000211287 0.000211287
0.00374567 -0.000211655 0.000211655
0.00450298 -0.000210883 0.000210883
0.00526122 -0.000210186 0.000210186
0.00601991 -0.000209776 0.000209776
0.00677878 -0.000209585 0.000209585
0.0075377 -0.000209529 0.000209529
0.00829663 -0.000209567 0.000209567
0.0090555 -0.000209704 0.000209704
0.00981423 -0.000209974 0.000209974
0.0105726 -0.000210358 0.000210358
0.0113305 -0.000210573 0.000210573
0.0120874 -0.00020945 0.00020945
0.0128442 -0.000204114 0.000204114
0.0136066 -0.000184927 0.000184927
0.0143611 -0.000146482 0.000146482
0.015 -0.000122465 0.000122465
0 0 0
0.000774721 -0.000225467 0.000117578
0.00151512 -0.000285172 0.000185
0.00225124 -0.000308502 0.000205732
0.00299592 -0.000314981 0.000211443
0.00374754 -0.000315967 0.000211719
0.00450334 -0.000315467 0.000210909
0.00526116 -0.000314883 0.000210193
0.00601979 -0.000314509 0.000209777
0.00677871 -0.000314327 0.000209584
0.00753769 -0.000314272 0.000209528
0.00829666 -0.000314306 0.000209566
0.00905555 -0.000314434 0.000209706
0.00981419 -0.000314672 0.000209982
0.0105722 -0.000314972 0.000210378
0.0113288 -0.000314984 0.000210618
0.0120828 -0.000313576 0.000209522
0.012833 -0.000307377 0.000204138
0.0135812 -0.000290651 0.000184929
0.014334 -0.000219525 0.000146727
0.015 -0.000165155 0.000123262
0 0 0
0.00076564 0.000231935 5.31767e-05
0.00149305 0.000290355 8.85371e-05
0.0022361 0.000311603 0.000103248
0.00298781 0.000316248 0.000106461
0.00374397 0.000316405 0.000106419
0.00450202 0.00031557 0.000105751
0.00526077 0.000314882 0.000105229
0.00601973 0.000314488 0.000104938
0.00677872 0.000314308 0.000104807
0.00753771 0.000314257 0.00010477
0.00829668 0.000314293 0.000104796
0.00905565 0.000314426 0.000104893
0.00981456 0.000314691 0.000105089
0.0105733 0.000315089 0.000105391
0.0113314 0.000315365 0.00010563
0.0120881 0.000314574 0.000105087
0.0128417 0.000309261 0.000101248
0.0135882 0.000292587 9.01218e-05
0.014336 0.000215855 7.36085e-05
0.015 0.000155277 6.42052e-05
0 0 0
0.000698904 0.000119545 5.18472e-05
0.00145877 0.000187719 8.73292e-05
0.00222142 0.000207326 0.000102499
0.00298236 0.000212066 0.000106103
0.00374235 0.000211912 0.000106275
0.00450176 0.000210941 0.000105706
0.00526087 0.000210183 0.000105221
0.00601986 0.000209762 0.00010494
0.00677879 0.000209573 0.000104811
0.00753772 0.00020952 0.000104773
0.00829665 0.000209558 0.000104799
0.00905559 0.000209699 0.000104893
0.00981456 0.000209984 0.000105078
0.0105736 0.000210427 0.00010535
0.0113329 0.000210812 0.000105519
0.0120925 0.000210059 0.000104854
0.012853 0.000205237 0.000100882
0.0136147 0.000185601 8.99262e-05
0.0143643 0.000144035 7.41103e-05
0.015 0.000117131 6.51001e-05
0 0 0
0.000689844 5.28819e-05 5.28819e-05
0.00143664 8.84653e-05 8.84653e-05
0.0022067 0.000103261 0.000103261
0.00297476 0.000106442 0.000106442
0.0037391 0.000106388 0.000106388
0.00450059 0.00010573 0.00010573
0.00526055 0.000105218 0.000105218
0.00601982 0.000104933 0.000104933
0.00677881 0.000104806 0.000104806
0.00753773 0.000104769 0.000104769
0.00829666 0.000104795 0.000104795
0.00905566 0.00010489 0.00010489
0.00981488 0.000105082 0.000105082
0.0105746 0.000105381 0.000105381
0.0113354 0.000105628 0.000105628
0.0120978 0.000105126 0.000105126
0.0128621 0.000101296 0.000101296
0.0136227 9.0036e-05 9.0036e-05
0.0143667 7.31042e-05 7.31042e-05
0.015 6.30579e-05 6.30579e-05
0 0 0
0.000687299 -3.16036e-17 5.33944e-05
0.00143155 -5.22281e-17 8.9098e-05
0.00220102 -5.38337e-17 0.000103693
0.00297153 -3.99275e-17 0.000106652
0.00373757 -2.10141e-17 0.000106464
0.00449999 -6.9752e-18 0.00010575
0.00526035 -1.6025e-18 0.00010522
0.00601977 -2.11279e-18 0.00010493
0.00677881 -5.76786e-18 0.000104803
0.00753774 -1.0874e-17 0.000104767
0.00829667 -1.99192e-17 0.000104793
0.00905571 -3.3965e-17 0.000104889
0.00981506 -4.99485e-17 0.000105087
0.0105751 -6.17798e-17 0.000105403
0.0113365 -6.22298e-17 0.000105697
0.0120999 -4.8902e-17 0.000105278
0.0128647 -2.59034e-17 0.000101502
0.0136242 -2.02978e-18 9.00488e-05
0.0143667 1.11672e-17 7.25866e-05
0.015 3.2372e-18 6.21127e-05
0 0 0
0.000689844 -5.28819e-05 5.28819e-05
0.00143664 -8.84653e-05 8.84653e-05
0.0022067 -0.000103261 0.000103261
0.00297476 -0.000106442 0.000106442
0.0037391 -0.000106388 0.000106388
0.00450059 -0.00010573 0.00010573
0.00526055 -0.000105218 0.000105218
0.00601982 -0.000104933 0.000104933
0.00677881 -0.000104806 0.000104806
0.00753773 -0.000104769 0.000104769
0.00829666 -0.000104795 0.000104795
0.00905566 -0.00010489 0.00010489
0.00981488 -0.000105082 0.000105082
0.0105746 -0.000105381 0.000105381
0.0113354 -0.000105628 0.000105628
0.0120978 -0.000105126 0.000105126
0.0128621 -0.000101296 0.000101296
0.0136227 -9.0036e-05 9.0036e-05
0.0143667 -7.31042e-05 7.31042e-05
0.015 -6.30579e-05 6.30579e-05
0 0 0
0.000698904 -0.000119545 5.18472e-05
0.00145877 -0.000187719 8.73292e-05
0.00222142 -0.000207326 0.000102499
0.00298236 -0.000212066 0.000106103
0.00374235 -0.000211912 0.000106275
0.00450176 -0.000210941 0.000105706
0.00526087 -0.000210183 0.000105221
0.00601986 -0.000209762 0.00010494
0.00677879 -0.000209573 0.000104811
0.00753772 -0.00020952 0.000104773
0.00829665 -0.000209558 0.000104799
0.00905559 -0.000209699 0.000104893
0.00981456 -0.000209984 0.000105078
0.0105736 -0.000210427 0.00010535
0.0113329 -0.000210812 0.000105519
0.0120925 -0.000210059 0.000104854
0.012853 -0.000205237 0.000100882
0.0136147 -0.000185601 8.99262e-05
0.0143643 -0.000144035 7.41103e-05
0.015 -0.000117131 6.51001e-05
0 0 0
0.00076564 -0.000231935 5.31767e-05
0.00149305 -0.000290355 8.85371e-05
0.0022361 -0.000311603 0.000103248
0.00298781 -0.000316248 0.000106461
0.00374397 -0.000316405 0.000106419
0.00450202 -0.00031557 0.000105751
0.00526077 -0.000314882 0.000105229
0.00601973 -0.000314488 0.000104938
0.00677872 -0.000314308 0.000104807
0.00753771 -0.000314257 0.00010477
0.00829668 -0.000314293 0.000104796
0.00905565 -0.000314426 0.000104893
0.00981456 -0.000314691 0.000105089
0.0105733 -0.000315089 0.000105391
0.0113314 -0.000315365 0.00010563
0.0120881 -0.000314574 0.000105087
0.0128417 -0.000309261 0.000101248
0.0135882 -0.000292587 9.01218e-05
0.014336 -0.000215855 7.36085e-05
0.015 -0.000155277 6.42052e-05
0 0 0
0.000763304 0.000233779 -1.01049e-18
0.00148789 0.000292822 -1.14188e-18
0.00223024 0.000312953 1.08239e-19
0.00298439 0.000316894 2.36678e-18
0.00374231 0.000316631 4.03856e-18
0.00450135 0.000315631 4.97658e-18
0.00526055 0.000314886 4.91719e-18
0.00601968 0.000314479 4.45601e-18
0.00677872 0.0003143 4.00074e-18
0.00753771 0.00031425 4.44794e-18
0.0082967 0.000314287 4.45931e-18
0.00905571 0.000314423 4.21789e-18
0.00981475 0.000314704 3.40607e-18
0.0105738 0.000315152 8.43697e-20
0.0113326 0.000315563 -9.50476e-19
0.0120903 0.000315031 -1.23152e-18
0.0128441 0.000310068 -7.8702e-19
0.0135894 0.000292951 -6.87861e-21
0.0143357 0.000214244 7.36663e-19
0.015 0.000152042 1.98014e-18
0 0 0
0.00069622 0.000120811 4.05898e-18
0.00145371 0.000189163 1.12033e-17
0.00221586 0.000208275 2.08794e-17
0.00297915 0.0002125 2.91739e-17
0.00374082 0.00021207 3.17985e-17
0.00450114 0.000210981 2.80603e-17
0.00526067 0.000210185 2.02722e-17
0.00601981 0.000209756 1.45771e-17
0.00677879 0.000209567 1.48914e-17
0.00753773 0.000209515 2.1282e-17
0.00829666 0.000209554 2.97434e-17
0.00905564 0.000209697 3.50882e-17
0.00981474 0.000209993 3.44755e-17
0.0105741 0.000210471 2.72453e-17
0.011334 0.000210949 1.76873e-17
0.0120946 0.000210383 9.86952e-18
0.0128555 0.000205732 3.63141e-18
0.0136163 0.000185734 9.25843e-19
0.0143646 0.000142919 -1.17668e-18
0.015 0.000115036 -1.22615e-18
0 0 0
0.000687299 5.33944e-05 -3.47756e-18
0.00143155 8.9098e-05 -1.49731e-18
0.00220102 0.000103693 7.88759e-18
0.00297153 0.000106652 1.98244e-17
0.00373757 0.000106464 2.69436e-17
0.00449999 0.00010575 2.53314e-17
0.00526035 0.00010522 1.75894e-17
0.00601977 0.00010493 1.06301e-17
0.00677881 0.000104803 1.00604e-17
0.00753774 0.000104767 1.61568e-17
0.00829667 0.000104793 2.35855e-17
0.00905571 0.000104889 2.66831e-17
0.00981506 0.000105087 2.30069e-17
0.0105751 0.000105403 1.28616e-17
0.0113365 0.000105697 3.65923e-18
0.0120999 0.000105278 -1.58631e-18
0.0128647 0.000101502 -2.00618e-18
0.0136242 9.00488e-05 1.18078e-18
0.0143667 7.25866e-05 1.88527e-18
0.015 6.21127e-05 -6.09398e-19
0 0 0
0.000684782 -1.12452e-17 -9.16394e-18
0.00142645 -1.41854e-17 -1.19376e-17
0.0021953 -6.29689e-18 -5.499e-18
0.00296827 6.22035e-18 5.19688e-18
0.00373604 1.3915e-17 1.12857e-17
0.00449939 1.03727e-17 8.36011e-18
0.00526016 -5.47239e-19 -1.13345e-18
0.00601973 -1.03848e-17 -9.49611e-18
0.00677881 -1.17916e-17 -1.06367e-17
0.00753775 -3.97663e-18 -4.24812e-18
0.00829669 6.53827e-18 4.38304e-18
0.00905576 1.16242e-17 8.7012e-18
0.00981523 8.81843e-18 6.68601e-18
0.0105756 -6.77851e-20 -1.14399e-18
0.0113376 -7.6779e-18 -7.51123e-18
0.0121021 -9.57598e-18 -8.16457e-18
0.0128673 -4.38553e-18 -4.06818e-18
0.0136256 4.3952e-18 3.16917e-18
0.0143667 6.59422e-18 5.22248e-18
0.015 8.04888e-19 -3.37575e-19
0 0 0
0.000687299 -5.33944e-05 -1.26046e-17
0.00143155 -8.9098e-05 -1.93166e-17
0.00220102 -0.000103693 -1.72286e-17
0.00297153 -0.000106652 -1.05876e-17
0.00373757 -0.000106464 -6.96558e-18
0.00449999 -0.00010575 -1.06961e-17
0.00526035 -0.00010522 -1.94689e-17
0.00601977 -0.00010493 -2.7212e-17
0.00677881 -0.000104803 -2.90715e-17
0.00753774 -0.000104767 -2.37475e-17
0.00829667 -0.000104793 -1.62375e-17
0.00905571 -0.000104889 -1.17316e-17
0.00981506 -0.000105087 -1.13475e-17
0.0105751 -0.000105403 -1.51631e-17
0.0113365 -0.000105697 -1.66368e-17
0.0120999 -0.000105278 -1.2938e-17
0.0128647 -0.000101502 -5.14071e-18
0.0136242 -9.00488e-05 4.22412e-18
0.0143667 -7.25866e-05 6.92765e-18
0.015 -6.21127e-05 6.4613e-19
0 0 0
0.00069622 -0.000120811 -1.43559e-17
0.00145371 -0.000189163 -2.4542e-17
0.00221586 -0.000208275 -2.68474e-17
0.00297915 -0.0002125 -2.35261e-17
0.00374082 -0.00021207 -1.95533e-17
0.00450114 -0.000210981 -1.88917e-17
0.00526067 -0.000210185 -2.18707e-17
0.00601981 -0.000209756 -2.55043e-17
0.00677879 -0.000209567 -2.7387e-17
0.00753773 -0.000209515 -2.66925e-17
0.00829666 -0.000209554 -2.56252e-17
0.00905564 -0.000209697 -2.59359e-17
0.00981474 -0.000209993 -2.71785e-17
0.0105741 -0.000210471 -2.93015e-17
0.011334 -0.000210949 -2.68163e-17
0.0120946 -0.000210383 -1.92084e-17
0.0128555 -0.000205732 -8.6937e-18
0.0136163 -0.000185734 1.91929e-18
0.0143646 -0.000142919 6.53362e-18
0.015 -0.000115036 7.47497e-19
0 0 0
0.000763304 -0.000233779 -1.02952e-18
0.00148789 -0.000292822 -1.90321e-18
0.00223024 -0.000312953 -1.73363e-18
0.00298439 -0.000316894 -1.22453e-18
0.00374231 -0.000316631 -1.92851e-18
0.00450135 -0.000315631 -3.67804e-18
0.00526055 -0.000314886 -5.82628e-18
0.00601968 -0.000314479 -7.51772e-18
0.00677872 -0.0003143 -7.42066e-18
0.00753771 -0.00031425 -6.41822e-18
0.0082967 -0.000314287 -4.62725e-18
0.00905571 -0.000314423 -3.41456e-18
0.00981475 -0.000314704 -1.92165e-18
0.0105738 -0.000315152 -1.93776e-18
0.0113326 -0.000315563 -1.96809e-18
0.0120903 -0.000315031 -8.6632e-19
0.0128441 -0.000310068 -6.89545e-19
0.0135894 -0.000292951 4.52439e-20
0.0143357 -0.000214244 -6.73169e-19
0.015 -0.000152042 -2.80667e-18
0 0 0
0.00076564 0.000231935 -5.31767e-05
0.00149305 0.000290355 -8.85371e-05
0.0022361 0.000311603 -0.000103248
0.00298781 0.000316248 -0.000106461
0.00374397 0.000316405 -0.000106419