<?xml version="1.0"?>
<VTKFile type="UnstructuredGrid" version="0.1" byte_order="LittleEndian">
<UnstructuredGrid>
<Piece NumberOfPoints="1029" NumberOfCells="720">
<Points>
<DataArray type="Float32" NumberOfComponents="3" format="ascii">
0 0 0
0.005 0 0
0.01 0 0
0.015 0 0
0.02 0 0
0.025 0 0
0.03 0 0
0.035 0 0
0.04 0 0
0.045 0 0
0.05 0 0
0.055 0 0
0.06 0 0
0.065 0 0
0.07 0 0
0.075 0 0
0.08 0 0
0.085 0 0
0.09 0 0
0.095 0 0
0.1 0 0
0 0.005 0
0.005 0.005 0
0.01 0.005 0
0.015 0.005 0
0.02 0.005 0
0.025 0.005 0
0.03 0.005 0
0.035 0.005 0
0.04 0.005 0
0.045 0.005 0
0.05 0.005 0
0.055 0.005 0
0.06 0.005 0
0.065 0.005 0
0.07 0.005 0
0.075 0.005 0
0.08 0.005 0
0.085 0.005 0
0.09 0.005 0
0.095 0.005 0
0.1 0.005 0
0 0.01 0
0.005 0.01 0
0.01 0.01 0
0.015 0.01 0
0.02 0.01 0
0.025 0.01 0
0.03 0.01 0
0.035 0.01 0
0.04 0.01 0
0.045 0.01 0
0.05 0.01 0
0.055 0.01 0
0.06 0.01 0
0.065 0.01 0
0.07 0.01 0
0.075 0.01 0
0.08 0.01 0
0.085 0.01 0
0.09 0.01 0
0.095 0.01 0
0.1 0.01 0
0 0.015 0
0.005 0.015 0
0.01 0.015 0
0.015 0.015 0
0.02 0.015 0
0.025 0.015 0
0.03 0.015 0
0.035 0.015 0
0.04 0.015 0
0.045 0.015 0
0.05 0.015 0
0.055 0.015 0
0.06 0.015 0
0.065 0.015 0
0.07 0.015 0
0.075 0.015 0
0.08 0.015 0
0.085 0.015 0
0.09 0.015 0
0.095 0.015 0
0.1 0.015 0
0 0.02 0
0.005 0.02 0
0.01 0.02 0
0.015 0.02 0
0.02 0.02 0
0.025 0.02 0
0.03 0.02 0
0.035 0.02 0
0.04 0.02 0
0.045 0.02 0
0.05 0.02 0
0.055 0.02 0
0.06 0.02 0
0.065 0.02 0
0.07 0.02 0
0.075 0.02 0
0.08 0.02 0
0.085 0.02 0
0.09 0.02 0
0.095 0.02 0
0.1 0.02 0
0 0.025 0
0.005 0.025 0
0.01 0.025 0
0.015 0.025 0
0.02 0.025 0
0.025 0.025 0
0.03 0.025 0
0.035 0.025 0
0.04 0.025 0
0.045 0.025 0
0.05 0.025 0
0.055 0.025 0
0.06 0.025 0
0.065 0.025 0
0.07 0.025 0
0.075 0.025 0
0.08 0.025 0
0.085 0.025 0
0.09 0.025 0
0.095 0.025 0
0.1 0.025 0
0 0.03 0
0.005 0.03 0
0.01 0.03 0
0.015 0.03 0
0.02 0.03 0
0.025 0.03 0
0.03 0.03 0
0.035 0.03 0
0.04 0.03 0
0.045 0.03 0
0.05 0.03 0
0.055 0.03 0
0.06 0.03 0
0.065 0.03 0
0.07 0.03 0
0.075 0.03 0
0.08 0.03 0
0.085 0.03 0
0.09 0.03 0
0.095 0.03 0
0.1 0.03 0
0 0 0.005
0.005 0 0.005
0.01 0 0.005
0.015 0 0.005
0.02 0 0.005
0.025 0 0.005
0.03 0 0.005
0.035 0 0.005
0.04 0 0.005
0.045 0 0.005
0.05 0 0.005
0.055 0 0.005
0.06 0 0.005
0.065 0 0.005
0.07 0 0.005
0.075 0 0.005
0.08 0 0.005
0.085 0 0.005
0.09 0 0.005
0.095 0 0.005
0.1 0 0.005
0 0.005 0.005
0.005 0.005 0.005
0.01 0.005 0.005
0.015 0.005 0.005
0.02 0.005 0.005
0.025 0.005 0.005
0.03 0.005 0.005
0.035 0.005 0.005
0.04 0.005 0.005
0.045 0.005 0.005
0.05 0.005 0.005
0.055 0.005 0.005
0.06 0.005 0.005
0.065 0.005 0.005
0.07 0.005 0.005
0.075 0.005 0.005
0.08 0.005 0.005
0.085 0.005 0.005
0.09 0.005 0.005
0.095 0.005 0.005
0.1 0.005 0.005
0 0.01 0.005
0.005 0.01 0.005
0.01 0.01 0.005
0.015 0.01 0.005
0.02 0.01 0.005
0.025 0.01 0.005
0.03 0.01 0.005
0.035 0.01 0.005
0.04 0.01 0.005
0.045 0.01 0.005
0.05 0.01 0.005
0.055 0.01 0.005
0.06 0.01 0.005
0.065 0.01 0.005
0.07 0.01 0.005
0.075 0.01 0.005
0.08 0.01 0.005
0.085 0.01 0.005
0.09 0.01 0.005
0.095 0.01 0.005
0.1 0.01 0.005
0 0.015 0.005
0.005 0.015 0.005
0.01 0.015 0.005
0.015 0.015 0.005
0.02 0.015 0.005
0.025 0.015 0.005
0.03 0.015 0.005
0.035 0.015 0.005
0.04 0.015 0.005
0.045 0.015 0.005
0.05 0.015 0.005
0.055 0.015 0.005
0.06 0.015 0.005
0.065 0.015 0.005
0.07 0.015 0.005
0.075 0.015 0.005
0.08 0.015 0.005
0.085 0.015 0.005
0.09 0.015 0.005
0.095 0.015 0.005
0.1 0.015 0.005
0 0.02 0.005
0.005 0.02 0.005
0.01 0.02 0.005
0.015 0.02 0.005
0.02 0.02 0.005
0.025 0.02 0.005
0.03 0.02 0.005
0.035 0.02 0.005
0.04 0.02 0.005
0.045 0.02 0.005
0.05 0.02 0.005
0.055 0.02 0.005
0.06 0.02 0.005
0.065 0.02 0.005
0.07 0.02 0.005
0.075 0.02 0.005
0.08 0.02 0.005
0.085 0.02 0.005
0.09 0.02 0.005
0.095 0.02 0.005
0.1 0.02 0.005
0 0.025 0.005
0.005 0.025 0.005
0.01 0.025 0.005
0.015 0.025 0.005
0.02 0.025 0.005
0.025 0.025 0.005
0.03 0.025 0.005
0.035 0.025 0.005
0.04 0.025 0.005
0.045 0.025 0.005
0.05 0.025 0.005
0.055 0.025 0.005
0.06 0.025 0.005
0.065 0.025 0.005
0.07 0.025 0.005
0.075 0.025 0.005
0.08 0.025 0.005
0.085 0.025 0.005
0.09 0.025 0.005
0.095 0.025 0.005
0.1 0.025 0.005
0 0.03 0.005
0.005 0.03 0.005
0.01 0.03 0.005
0.015 0.03 0.005
0.02 0.03 0.005
0.025 0.03 0.005
0.03 0.03 0.005
0.035 0.03 0.005
0.04 0.03 0.005
0.045 0.03 0.005
0.05 0.03 0.005
0.055 0.03 0.005
0.06 0.03 0.005
0.065 0.03 0.005
0.07 0.03 0.005
0.075 0.03 0.005
0.08 0.03 0.005
0.085 0.03 0.005
0.09 0.03 0.005
0.095 0.03 0.005
0.1 0.03 0.005
0 0 0.01
0.005 0 0.01
0.01 0 0.01
0.015 0 0.01
0.02 0 0.01
0.025 0 0.01
0.03 0 0.01
0.035 0 0.01
0.04 0 0.01
0.045 0 0.01
0.05 0 0.01
0.055 0 0.01
0.06 0 0.01
0.065 0 0.01
0.07 0 0.01
0.075 0 0.01
0.08 0 0.01
0.085 0 0.01
0.09 0 0.01
0.095 0 0.01
0.1 0 0.01
0 0.005 0.01
0.005 0.005 0.01
0.01 0.005 0.01
0.015 0.005 0.01
0.02 0.005 0.01
0.025 0.005 0.01
0.03 0.005 0.01
0.035 0.005 0.01
0.04 0.005 0.01
0.045 0.005 0.01
0.05 0.005 0.01
0.055 0.005 0.01
0.06 0.005 0.01
0.065 0.005 0.01
0.07 0.005 0.01
0.075 0.005 0.01
0.08 0.005 0.01
0.085 0.005 0.01
0.09 0.005 0.01
0.095 0.005 0.01
0.1 0.005 0.01
0 0.01 0.01
0.005 0.01 0.01
0.01 0.01 0.01
0.015 0.01 0.01
0.02 0.01 0.01
0.025 0.01 0.01
0.03 0.01 0.01
0.035 0.01 0.01
0.04 0.01 0.01
0.045 0.01 0.01
0.05 0.01 0.01
0.055 0.01 0.01
0.06 0.01 0.01
0.065 0.01 0.01
0.07 0.01 0.01
0.075 0.01 0.01
0.08 0.01 0.01
0.085 0.01 0.01
0.09 0.01 0.01
0.095 0.01 0.01
0.1 0.01 0.01
0 0.015 0.01
0.005 0.015 0.01
0.01 0.015 0.01
0.015 0.015 0.01
0.02 0.015 0.01
0.025 0.015 0.01
0.03 0.015 0.01
0.035 0.015 0.01
0.04 0.015 0.01
0.045 0.015 0.01
0.05 0.015 0.01
0.055 0.015 0.01
0.06 0.015 0.01
0.065 0.015 0.01
0.07 0.015 0.01
0.075 0.015 0.01
0.08 0.015 0.01
0.085 0.015 0.01
0.09 0.015 0.01
0.095 0.015 0.01
0.1 0.015 0.01
0 0.02 0.01
0.005 0.02 0.01
0.01 0.02 0.01
0.015 0.02 0.01
0.02 0.02 0.01
0.025 0.02 0.01
0.03 0.02 0.01
0.035 0.02 0.01
0.04 0.02 0.01
0.045 0.02 0.01
0.05 0.02 0.01
0.055 0.02 0.01
0.06 0.02 0.01
0.065 0.02 0.01
0.07 0.02 0.01
0.075 0.02 0.01
0.08 0.02 0.01
0.085 0.02 0.01
0.09 0.02 0.01
0.095 0.02 0.01
0.1 0.02 0.01
0 0.025 0.01
0.005 0.025 0.01
0.01 0.025 0.01
0.015 0.025 0.01
0.02 0.025 0.01
0.025 0.025 0.01
0.03 0.025 0.01
0.035 0.025 0.01
0.04 0.025 0.01
0.045 0.025 0.01
0.05 0.025 0.01
0.055 0.025 0.01
0.06 0.025 0.01
0.065 0.025 0.01
0.07 0.025 0.01
0.075 0.025 0.01
0.08 0.025 0.01
0.085 0.025 0.01
0.09 0.025 0.01
0.095 0.025 0.01
0.1 0.025 0.01
0 0.03 0.01
0.005 0.03 0.01
0.01 0.03 0.01
0.015 0.03 0.01
0.02 0.03 0.01
0.025 0.03 0.01
0.03 0.03 0.01
0.035 0.03 0.01
0.04 0.03 0.01
0.045 0.03 0.01
0.05 0.03 0.01
0.055 0.03 0.01
0.06 0.03 0.01
0.065 0.03 0.01
0.07 0.03 0.01
0.075 0.03 0.01
0.08 0.03 0.01
0.085 0.03 0.01
0.09 0.03 0.01
0.095 0.03 0.01
0.1 0.03 0.01
0 0 0.015
0.005 0 0.015
0.01 0 0.015
0.015 0 0.015
0.02 0 0.015
0.025 0 0.015
0.03 0 0.015
0.035 0 0.015
0.04 0 0.015
0.045 0 0.015
0.05 0 0.015
0.055 0 0.015
0.06 0 0.015
0.065 0 0.015
0.07 0 0.015
0.075 0 0.015
0.08 0 0.015
0.085 0 0.015
0.09 0 0.015
0.095 0 0.015
0.1 0 0.015
0 0.005 0.015
0.005 0.005 0.015
0.01 0.005 0.015
0.015 0.005 0.015
0.02 0.005 0.015
0.025 0.005 0.015
0.03 0.005 0.015
0.035 0.005 0.015
0.04 0.005 0.015
0.045 0.005 0.015
0.05 0.005 0.015
0.055 0.005 0.015
0.06 0.005 0.015
0.065 0.005 0.015
0.07 0.005 0.015
0.075 0.005 0.015
0.08 0.005 0.015
0.085 0.005 0.015
0.09 0.005 0.015
0.095 0.005 0.015
0.1 0.005 0.015
0 0.01 0.015
0.005 0.01 0.015
0.01 0.01 0.015
0.015 0.01 0.015
0.02 0.01 0.015
0.025 0.01 0.015
0.03 0.01 0.015
0.035 0.01 0.015
0.04 0.01 0.015
0.045 0.01 0.015
0.05 0.01 0.015
0.055 0.01 0.015
0.06 0.01 0.015
0.065 0.01 0.015
0.07 0.01 0.015
0.075 0.01 0.015
0.08 0.01 0.015
0.085 0.01 0.015
0.09 0.01 0.015
0.095 0.01 0.015
0.1 0.01 0.015
0 0.015 0.015
0.005 0.015 0.015
0.01 0.015 0.015
0.015 0.015 0.015
0.02 0.015 0.015
0.025 0.015 0.015
0.03 0.015 0.015
0.035 0.015 0.015
0.04 0.015 0.015
0.045 0.015 0.015
0.05 0.015 0.015
0.055 0.015 0.015
0.06 0.015 0.015
0.065 0.015 0.015
0.07 0.015 0.015
0.075 0.015 0.015
0.08 0.015 0.015
0.085 0.015 0.015
0.09 0.015 0.015
0.095 0.015 0.015
0.1 0.015 0.015
0 0.02 0.015
0.005 0.02 0.015
0.01 0.02 0.015
0.015 0.02 0.015
0.02 0.02 0.015
0.025 0.02 0.015
0.03 0.02 0.015
0.035 0.02 0.015
0.04 0.02 0.015
0.045 0.02 0.015
0.05 0.02 0.015
0.055 0.02 0.015
0.06 0.02 0.015
0.065 0.02 0.015
0.07 0.02 0.015
0.075 0.02 0.015
0.08 0.02 0.015
0.085 0.02 0.015
0.09 0.02 0.015
0.095 0.02 0.015
0.1 0.02 0.015
0 0.025 0.015
0.005 0.025 0.015
0.01 0.025 0.015
0.015 0.025 0.015
0.02 0.025 0.015
0.025 0.025 0.015
0.03 0.025 0.015
0.035 0.025 0.015
0.04 0.025 0.015
0.045 0.025 0.015
0.05 0.025 0.015
0.055 0.025 0.015
0.06 0.025 0.015
0.065 0.025 0.015
0.07 0.025 0.015
0.075 0.025 0.015
0.08 0.025 0.015
0.085 0.025 0.015
0.09 0.025 0.015
0.095 0.025 0.015
0.1 0.025 0.015
0 0.03 0.015
0.005 0.03 0.015
0.01 0.03 0.015
0.015 0.03 0.015
0.02 0.03 0.015
0.025 0.03 0.015
0.03 0.03 0.015
0.035 0.03 0.015
0.04 0.03 0.015
0.045 0.03 0.015
0.05 0.03 0.015
0.055 0.03 0.015
0.06 0.03 0.015
0.065 0.03 0.015
0.07 0.03 0.015
0.075 0.03 0.015
0.08 0.03 0.015
0.085 0.03 0.015
0.09 0.03 0.015
0.095 0.03 0.015
0.1 0.03 0.015
0 0 0.02
0.005 0 0.02
0.01 0 0.02
0.015 0 0.02
0.02 0 0.02
0.025 0 0.02
0.03 0 0.02
0.035 0 0.02
0.04 0 0.02
0.045 0 0.02
0.05 0 0.02
0.055 0 0.02
0.06 0 0.02
0.065 0 0.02
0.07 0 0.02
0.075 0 0.02
0.08 0 0.02
0.085 0 0.02
0.09 0 0.02
0.095 0 0.02
0.1 0 0.02
0 0.005 0.02
0.005 0.005 0.02
0.01 0.005 0.02
0.015 0.005 0.02
0.02 0.005 0.02
0.025 0.005 0.02
0.03 0.005 0.02
0.035 0.005 0.02
0.04 0.005 0.02
0.045 0.005 0.02
0.05 0.005 0.02
0.055 0.005 0.02
0.06 0.005 0.02
0.065 0.005 0.02
0.07 0.005 0.02
0.075 0.005 0.02
0.08 0.005 0.02
0.085 0.005 0.02
0.09 0.005 0.02
0.095 0.005 0.02
0.1 0.005 0.02
0 0.01 0.02
0.005 0.01 0.02
0.01 0.01 0.02
0.015 0.01 0.02
0.02 0.01 0.02
0.025 0.01 0.02
0.03 0.01 0.02
0.035 0.01 0.02
0.04 0.01 0.02
0.045 0.01 0.02
0.05 0.01 0.02
0.055 0.01 0.02
0.06 0.01 0.02
0.065 0.01 0.02
0.07 0.01 0.02
0.075 0.01 0.02
0.08 0.01 0.02
0.085 0.01 0.02
0.09 0.01 0.02
0.095 0.01 0.02
[...]
<PointData Vectors="Displacement">
<DataArray type="Float32" Name="Displacement" NumberOfComponents="3" format="ascii">
0 0 0
0.000892884 0.000240539 0.000240539
0.00165009 0.000301199 0.000301199
0.00241508 0.000328667 0.000328667
0.0031988 0.000336222 0.000336222
0.00399571 0.000337683 0.000337683
0.00479989 0.000337302 0.000337302
0.00560737 0.00033674 0.00033674
0.00641613 0.000336362 0.000336362
0.00722528 0.000336174 0.000336174
0.00803453 0.000336113 0.000336113
0.00884375 0.000336143 0.000336143
0.00965286 0.000336262 0.000336262
0.0104616 0.000336477 0.000336477
0.0112694 0.000336726 0.000336726
0.0120751 0.000336617 0.000336617
0.0128764 0.000335 0.000335
0.0136706 0.000328221 0.000328221
0.0144567 0.00031114 0.00031114
0.0152586 0.000245538 0.000245538
0.016 0.000197149 0.000197149
0 0 0
0.000824366 0.000126494 0.000242244
0.00161333 0.00019827 0.000305397
0.00239806 0.000220111 0.00033003
0.0031921 0.000226081 0.000336818
0.00399354 0.00022635 0.000337846
0.00479942 0.000225504 0.00033733
0.0056074 0.000224765 0.000336729
0.00641624 0.000224338 0.000336349
0.00722536 0.000224142 0.000336164
0.00803455 0.000224084 0.000336106
0.00884372 0.000224118 0.000336136
0.00965282 0.000224248 0.000336255
0.0104617 0.000224509 0.000336479
0.0112699 0.000224886 0.000336762
0.0120768 0.000225117 0.000336768
0.0128812 0.000224062 0.000335407
0.0136817 0.00021885 0.000329384
0.0144803 0.000200087 0.000313147
0.0152831 0.000162497 0.000243153
0.016 0.000139325 0.000189456
0 0 0
0.00081465 5.72392e-05 0.000249488
0.0015898 9.49868e-05 0.000311076
0.00238204 0.000110502 0.000333376
0.00318357 0.000113827 0.000338164
0.00398982 0.00011376 0.000338304
0.00479805 0.000113057 0.000337433
0.00560701 0.000112518 0.000336726
0.00641618 0.000112219 0.000336326
0.00722537 0.000112086 0.000336144
0.00803456 0.000112047 0.000336091
0.00884374 0.000112071 0.000336123
0.00965291 0.000112162 0.000336246
0.010462 0.000112347 0.000336495
0.011271 0.000112636 0.000336873
0.0120793 0.000112869 0.000337139
0.0128863 0.000112356 0.000336391
0.0136902 0.000108642 0.000331268
0.0144872 9.77555e-05 0.000315131
0.015285 8.14839e-05 0.000239536
0.016 7.21963e-05 0.000179629
0 0 0
0.000812158 -2.94205e-18 0.000251555
0.00158427 -4.91912e-18 0.000313795
0.00237581 -5.37991e-18 0.000334837
0.00317997 -3.84926e-18 0.000338853
0.00398809 -2.74882e-18 0.000338541
0.00479736 -1.7249e-18 0.000337495
0.00560678 -1.58904e-18 0.00033673
0.00641612 -1.74533e-18 0.000336317
0.00722537 -5.87131e-19 0.000336136
0.00803457 1.90002e-18 0.000336084
0.00884376 4.28162e-18 0.000336117
0.00965297 5.88717e-18 0.000336244
0.0104622 5.9837e-18 0.000336508
0.0112715 4.07413e-18 0.000336934
0.0120805 2.22719e-18 0.000337332
0.0128884 7.82363e-19 0.000336843
0.0136926 1.16696e-18 0.00033208
0.0144883 1.79831e-18 0.000315514
0.0152847 3.64927e-18 0.000237946
0.016 2.90238e-18 0.000176413
0 0 0
0.00081465 -5.72392e-05 0.000249488
0.0015898 -9.49868e-05 0.000311076
0.00238204 -0.000110502 0.000333376
0.00318357 -0.000113827 0.000338164
0.00398982 -0.00011376 0.000338304
0.00479805 -0.000113057 0.000337433
0.00560701 -0.000112518 0.000336726
0.00641618 -0.000112219 0.000336326
0.00722537 -0.000112086 0.000336144
0.00803456 -0.000112047 0.000336091
0.00884374 -0.000112071 0.000336123
0.00965291 -0.000112162 0.000336246
0.010462 -0.000112347 0.000336495
0.011271 -0.000112636 0.000336873
0.0120793 -0.000112869 0.000337139
0.0128863 -0.000112356 0.000336391
0.0136902 -0.000108642 0.000331268
0.0144872 -9.77555e-05 0.000315131
0.015285 -8.14839e-05 0.000239536
0.016 -7.21963e-05 0.000179629
0 0 0
0.000824366 -0.000126494 0.000242244
0.00161333 -0.00019827 0.000305397
0.00239806 -0.000220111 0.00033003
0.0031921 -0.000226081 0.000336818
0.00399354 -0.00022635 0.000337846
0.00479942 -0.000225504 0.00033733
0.0056074 -0.000224765 0.000336729
0.00641624 -0.000224338 0.000336349
0.00722536 -0.000224142 0.000336164
0.00803455 -0.000224084 0.000336106
0.00884372 -0.000224118 0.000336136
0.00965282 -0.000224248 0.000336255
0.0104617 -0.000224509 0.000336479
0.0112699 -0.000224886 0.000336762
0.0120768 -0.000225117 0.000336768
0.0128812 -0.000224062 0.000335407
0.0136817 -0.00021885 0.000329384
0.0144803 -0.000200087 0.000313147
0.0152831 -0.000162497 0.000243153
0.016 -0.000139325 0.000189456
0 0 0
0.000892884 -0.000240539 0.000240539
0.00165009 -0.000301199 0.000301199
0.00241508 -0.000328667 0.000328667
0.0031988 -0.000336222 0.000336222
0.00399571 -0.000337683 0.000337683
0.00479989 -0.000337302 0.000337302
0.00560737 -0.00033674 0.00033674
0.00641613 -0.000336362 0.000336362
0.00722528 -0.000336174 0.000336174
0.00803453 -0.000336113 0.000336113
0.00884375 -0.000336143 0.000336143
0.00965286 -0.000336262 0.000336262
0.0104616 -0.000336477 0.000336477
0.0112694 -0.000336726 0.000336726
0.0120751 -0.000336617 0.000336617
0.0128764 -0.000335 0.000335
0.0136706 -0.000328221 0.000328221
0.0144567 -0.00031114 0.00031114
0.0152586 -0.000245538 0.000245538
0.016 -0.000197149 0.000197149
0 0 0
0.000824366 0.000242244 0.000126494
0.00161333 0.000305397 0.00019827
0.00239806 0.00033003 0.000220111
0.0031921 0.000336818 0.000226081
0.00399354 0.000337846 0.00022635
0.00479942 0.00033733 0.000225504
0.0056074 0.000336729 0.000224765
0.00641624 0.000336349 0.000224338
0.00722536 0.000336164 0.000224142
0.00803455 0.000336106 0.000224084
0.00884372 0.000336136 0.000224118
0.00965282 0.000336255 0.000224248
0.0104617 0.000336479 0.000224509
0.0112699 0.000336762 0.000224886
0.0120768 0.000336768 0.000225117
0.0128812 0.000335407 0.000224062
0.0136817 0.000329384 0.00021885
0.0144803 0.000313147 0.000200087
0.0152831 0.000243153 0.000162497
0.016 0.000189456 0.000139325
0 0 0
0.000753973 0.000125728 0.000125728
0.00157692 0.000197885 0.000197885
0.00238207 0.000219891 0.000219891
0.00318589 0.000225917 0.000225917
0.00399161 0.000226283 0.000226283
0.00479904 0.000225476 0.000225476
0.00560746 0.000224757 0.000224757
0.00641635 0.000224337 0.000224337
0.00722543 0.000224143 0.000224143
0.00803456 0.000224085 0.000224085
0.00884369 0.000224118 0.000224118
0.00965277 0.000224247 0.000224247
0.0104617 0.000224502 0.000224502
0.0112704 0.000224867 0.000224867
0.0120784 0.000225074 0.000225074
0.0128856 0.000223993 0.000223993
0.0136926 0.000218829 0.000218829
0.0145051 0.000200089 0.000200089
0.0153096 0.000162244 0.000162244
0.016 0.000138501 0.000138501
0 0 0
0.000743774 5.57677e-05 0.00012873
0.00155372 9.36711e-05 0.000201294
0.0023667 0.000109699 0.000221849
0.00317791 0.000113447 0.000226749
0.00398815 0.000113609 0.000226553
0.00479778 0.000113012 0.000225535
0.00560711 0.000112509 0.000224752
0.0064163 0.000112221 0.000224322
0.00722545 0.00011209 0.000224131
0.00803458 0.000112051 0.000224076
0.00884371 0.000112073 0.00022411
0.00965285 0.000112161 0.000224241
0.010462 0.000112337 0.000224511
0.0112713 0.000112597 0.000224933
0.0120808 0.000112762 0.000225307
0.0128906 0.000112128 0.000224597
0.0137011 0.000108278 0.000219959
0.0145129 9.75528e-05 0.000200793
0.0153126 8.19689e-05 0.000159826
0.016 7.3063e-05 0.000133186
0 0 0
0.000740904 -1.21983e-17 0.000130148
0.00154831 -1.97975e-17 0.000202893
0.00236079 -2.02953e-17 0.000222882
0.00317453 -1.5476e-17 0.000227215
0.00398654 -1.04303e-17 0.000226719
0.00479714 -8.95136e-18 0.000225576
0.0056069 -1.09225e-17 0.000224754
0.00641625 -1.23683e-17 0.000224316
0.00722544 -9.78691e-18 0.000224125
0.00803458 -1.239e-18 0.000224071
0.00884372 8.24865e-18 0.000224106
0.00965291 1.47203e-17 0.000224239
0.0104622 1.41366e-17 0.000224519
0.0112718 7.19446e-18 0.000224976
0.0120818 -1.303e-18 0.000225442
0.0128926 -6.12809e-18 0.000224919
0.0137036 -4.60054e-18 0.000220459
0.0145145 5.83295e-20 0.000200939
0.0153129 6.55113e-18 0.000158723
0.016 5.16459e-18 0.000131101
0 0 0
0.000743774 -5.57677e-05 0.00012873
0.00155372 -9.36711e-05 0.000201294
0.0023667 -0.000109699 0.000221849
0.00317791 -0.000113447 0.000226749
0.00398815 -0.000113609 0.000226553
0.00479778 -0.000113012 0.000225535
0.00560711 -0.000112509 0.000224752
0.0064163 -0.000112221 0.000224322
0.00722545 -0.00011209 0.000224131
0.00803458 -0.000112051 0.000224076
0.00884371 -0.000112073 0.00022411
0.00965285 -0.000112161 0.000224241
0.010462 -0.000112337 0.000224511
0.0112713 -0.000112597 0.000224933
0.0120808 -0.000112762 0.000225307
0.0128906 -0.000112128 0.000224597
0.0137011 -0.000108278 0.000219959
0.0145129 -9.75528e-05 0.000200793
0.0153126 -8.19689e-05 0.000159826
0.016 -7.3063e-05 0.000133186
0 0 0
0.000753973 -0.000125728 0.000125728
0.00157692 -0.000197885 0.000197885
0.00238207 -0.000219891 0.000219891
0.00318589 -0.000225917 0.000225917
0.00399161 -0.000226283 0.000226283
0.00479904 -0.000225476 0.000225476
0.00560746 -0.000224757 0.000224757
0.00641635 -0.000224337 0.000224337
0.00722543 -0.000224143 0.000224143
0.00803456 -0.000224085 0.000224085
0.00884369 -0.000224118 0.000224118
0.00965277 -0.000224247 0.000224247
0.0104617 -0.000224502 0.000224502
0.0112704 -0.000224867 0.000224867
0.0120784 -0.000225074 0.000225074
0.0128856 -0.000223993 0.000223993
0.0136926 -0.000218829 0.000218829
0.0145051 -0.000200089 0.000200089
0.0153096 -0.000162244 0.000162244
0.016 -0.000138501 0.000138501
0 0 0
0.000824366 -0.000242244 0.000126494
0.00161333 -0.000305397 0.00019827
0.00239806 -0.00033003 0.000220111
0.0031921 -0.000336818 0.000226081
0.00399354 -0.000337846 0.00022635
0.00479942 -0.00033733 0.000225504
0.0056074 -0.000336729 0.000224765
0.00641624 -0.000336349 0.000224338
0.00722536 -0.000336164 0.000224142
0.00803455 -0.000336106 0.000224084
0.00884372 -0.000336136 0.000224118
0.00965282 -0.000336255 0.000224248
0.0104617 -0.000336479 0.000224509
0.0112699 -0.000336762 0.000224886
0.0120768 -0.000336768 0.000225117
0.0128812 -0.000335407 0.000224062
0.0136817 -0.000329384 0.00021885
0.0144803 -0.000313147 0.000200087
0.0152831 -0.000243153 0.000162497
0.016 -0.000189456 0.000139325
0 0 0
0.00081465 0.000249488 5.72392e-05
0.0015898 0.000311076 9.49868e-05
0.00238204 0.000333376 0.000110502
0.00318357 0.000338164 0.000113827
0.00398982 0.000338304 0.00011376
0.00479805 0.000337433 0.000113057
0.00560701 0.000336726 0.000112518
0.00641618 0.000336326 0.000112219
0.00722537 0.000336144 0.000112086
0.00803456 0.000336091 0.000112047
0.00884374 0.000336123 0.000112071
0.00965291 0.000336246 0.000112162
0.010462 0.000336495 0.000112347
0.011271 0.000336873 0.000112636
0.0120793 0.000337139 0.000112869
0.0128863 0.000336391 0.000112356
0.0136902 0.000331268 0.000108642
0.0144872 0.000315131 9.77555e-05
0.015285 0.000239536 8.14839e-05
0.016 0.000179629 7.21963e-05
0 0 0
0.000743774 0.00012873 5.57677e-05
0.00155372 0.000201294 9.36711e-05
0.0023667 0.000221849 0.000109699
0.00317791 0.000226749 0.000113447
0.00398815 0.000226553 0.000113609
0.00479778 0.000225535 0.000113012
0.00560711 0.000224752 0.000112509
0.0064163 0.000224322 0.000112221
0.00722545 0.000224131 0.00011209
0.00803458 0.000224076 0.000112051
0.00884371 0.00022411 0.000112073
0.00965285 0.000224241 0.000112161
0.010462 0.000224511 0.000112337
0.0112713 0.000224933 0.000112597
0.0120808 0.000225307 0.000112762
0.0128906 0.000224597 0.000112128
0.0137011 0.000219959 0.000108278
0.0145129 0.000200793 9.75528e-05
0.0153126 0.000159826 8.19689e-05
0.016 0.000133186 7.3063e-05
0 0 0
0.000734101 5.6936e-05 5.6936e-05
0.00153013 9.4935e-05 9.4935e-05
0.00235115 0.000110532 0.000110532
0.00316994 0.000113811 0.000113811
0.00398476 0.000113728 0.000113728
0.00479657 0.000113036 0.000113036
0.00560678 0.000112506 0.000112506
0.00641626 0.000112214 0.000112214
0.00722547 0.000112084 0.000112084
0.00803459 0.000112047 0.000112047
0.00884372 0.00011207 0.00011207
0.00965293 0.000112159 0.000112159
0.0104623 0.000112341 0.000112341
0.0112722 0.000112627 0.000112627
0.0120831 0.000112869 0.000112869
0.0128956 0.000112399 0.000112399
0.01371 0.000108698 0.000108698
0.0145208 9.76766e-05 9.76766e-05
0.0153149 8.09704e-05 8.09704e-05
0.016 7.10212e-05 7.10212e-05
0 0 0
0.000731383 -1.55198e-17 5.75118e-05
0.00152468 -2.41955e-17 9.56371e-05
0.00234512 -2.18795e-17 0.000111005
0.00316655 -1.28216e-17 0.000114037
0.00398317 -4.55324e-18 0.000113808
0.00479595 -3.62825e-18 0.000113056
0.00560658 -8.72209e-18 0.000112507
0.00641622 -1.37079e-17 0.000112211
0.00722547 -1.20129e-17 0.000112081
0.0080346 -1.48733e-18 0.000112044
0.00884374 1.22811e-17 0.000112068
0.00965298 2.11371e-17 0.000112158
0.0104625 1.98656e-17 0.000112345
0.0112727 1.00207e-17 0.000112648
0.0120842 -2.14187e-18 0.000112936
0.0128977 -8.33834e-18 0.00011255
0.0137126 -5.16973e-18 0.000108907
0.0145222 3.02773e-18 9.76958e-05
0.015315 1.39099e-17 8.0458e-05
0.016 8.3266e-18 7.00792e-05
0 0 0
0.000734101 -5.6936e-05 5.6936e-05
0.00153013 -9.4935e-05 9.4935e-05
0.00235115 -0.000110532 0.000110532
0.00316994 -0.000113811 0.000113811
0.00398476 -0.000113728 0.000113728
0.00479657 -0.000113036 0.000113036
0.00560678 -0.000112506 0.000112506
0.00641626 -0.000112214 0.000112214
0.00722547 -0.000112084 0.000112084
0.00803459 -0.000112047 0.000112047
0.00884372 -0.00011207 0.00011207
0.00965293 -0.000112159 0.000112159
0.0104623 -0.000112341 0.000112341
0.0112722 -0.000112627 0.000112627
0.0120831 -0.000112869 0.000112869
0.0128956 -0.000112399 0.000112399
0.01371 -0.000108698 0.000108698
0.0145208 -9.76766e-05 9.76766e-05
0.0153149 -8.09704e-05 8.09704e-05
0.016 -7.10212e-05 7.10212e-05
0 0 0
0.000743774 -0.00012873 5.57677e-05
0.00155372 -0.000201294 9.36711e-05
0.0023667 -0.000221849 0.000109699
0.00317791 -0.000226749 0.000113447
0.00398815 -0.000226553 0.000113609
0.00479778 -0.000225535 0.000113012
0.00560711 -0.000224752 0.000112509
0.0064163 -0.000224322 0.000112221
0.00722545 -0.000224131 0.00011209
0.00803458 -0.000224076 0.000112051
0.00884371 -0.00022411 0.000112073
0.00965285 -0.000224241 0.000112161
0.010462 -0.000224511 0.000112337
0.0112713 -0.000224933 0.000112597
0.0120808 -0.000225307 0.000112762
0.0128906 -0.000224597 0.000112128
0.0137011 -0.000219959 0.000108278
0.0145129 -0.000200793 9.75528e-05
0.0153126 -0.000159826 8.19689e-05
0.016 -0.000133186 7.3063e-05
0 0 0
0.00081465 -0.000249488 5.72392e-05
0.0015898 -0.000311076 9.49868e-05
0.00238204 -0.000333376 0.000110502
0.00318357 -0.000338164 0.000113827
0.00398982 -0.000338304 0.00011376
0.00479805 -0.000337433 0.000113057
0.00560701 -0.000336726 0.000112518
0.00641618 -0.000336326 0.000112219
0.00722537 -0.000336144 0.000112086
0.00803456 -0.000336091 0.000112047
0.00884374 -0.000336123 0.000112071
0.00965291 -0.000336246 0.000112162
0.010462 -0.000336495 0.000112347
0.011271 -0.000336873 0.000112636
0.0120793 -0.000337139 0.000112869
0.0128863 -0.000336391 0.000112356
0.0136902 -0.000331268 0.000108642
0.0144872 -0.000315131 9.77555e-05
0.015285 -0.000239536 8.14839e-05
0.016 -0.000179629 7.21963e-05
0 0 0
0.000812158 0.000251555 -1.66793e-18
0.00158427 0.000313795 -3.18956e-18
0.00237581 0.000334837 -3.30587e-18
0.00317997 0.000338853 -2.44772e-18
0.00398809 0.000338541 -1.12114e-18
0.00479736 0.000337495 -3.59178e-20
0.00560678 0.00033673 1.16052e-18
0.00641612 0.000336317 2.14694e-18
0.00722537 0.000336136 3.00545e-18
0.00803457 0.000336084 4.83673e-18
0.00884376 0.000336117 6.207e-18
0.00965297 0.000336244 6.85921e-18
0.0104622 0.000336508 7.75028e-18
0.0112715 0.000336934 5.86707e-18
0.0120805 0.000337332 5.26316e-18
0.0128884 0.000336843 5.45081e-18
0.0136926 0.00033208 5.19758e-18
0.0144883 0.000315514 5.67437e-18
0.0152847 0.000237946 5.91134e-18
0.016 0.000176413 4.591e-18
0 0 0
0.000740904 0.000130148 -5.44833e-18
0.00154831 0.000202893 -8.49963e-18
0.00236079 0.000222882 -7.48089e-18
0.00317453 0.000227215 -3.34181e-18
0.00398654 0.000226719 1.57691e-18
0.00479714 0.000225576 4.90537e-18
0.0056069 0.000224754 6.97606e-18
0.00641625 0.000224316 8.20593e-18
0.00722544 0.000224125 1.06656e-17
0.00803458 0.000224071 1.47896e-17
0.00884372 0.000224106 1.93542e-17
0.00965291 0.000224239 2.1943e-17
0.0104622 0.000224519 2.19318e-17
0.0112718 0.000224976 1.79221e-17
0.0120818 0.000225442 1.44522e-17
0.0128926 0.000224919 1.31223e-17
0.0137036 0.000220459 1.39129e-17
0.0145145 0.000200939 1.65213e-17
0.0153129 0.000158723 1.74709e-17
0.016 0.000131101 7.09145e-18
0 0 0
0.000731383 5.75118e-05 -7.8456e-18
0.00152468 9.56371e-05 -1.23543e-17
0.00234512 0.000111005 -1.09394e-17
0.00316655 0.000114037 -5.19627e-18
0.00398317 0.000113808 8.922e-19
0.00479595 0.000113056 4.2604e-18
0.00560658 0.000112507 4.81941e-18
0.00641622 0.000112211 4.66169e-18
0.00722547 0.000112081 6.79688e-18
0.0080346 0.000112044 1.24353e-17
0.00884374 0.000112068 1.893e-17
0.00965298 0.000112158 2.31795e-17
0.0104625 0.000112345 2.31145e-17
0.0112727 0.000112648 1.73636e-17
0.0120842 0.000112936 1.21046e-17
0.0128977 0.00011255 9.65477e-18
0.0137126 0.000108907 1.11933e-17
0.0145222 9.76958e-05 1.53279e-17
0.015315 8.0458e-05 1.75234e-17
0.016 7.00792e-05 7.00711e-18
0 0 0
0.000728695 -1.04882e-17 -4.927e-18
0.00151922 -1.37891e-17 -6.45105e-18
0.00233904 -6.46302e-18 -3.26571e-18
0.00316312 6.03324e-18 2.62872e-18
0.00398158 1.42946e-17 6.69973e-18
0.00479533 1.23187e-17 6.11977e-18
0.00560638 1.53946e-18 1.48137e-18
0.00641617 -9.91188e-18 -3.97328e-18
0.00722547 -1.36117e-17 -5.98635e-18
0.00803461 -6.41281e-18 -2.8541e-18
0.00884375 6.13424e-18 2.71684e-18
0.00965303 1.47382e-17 7.11243e-18
0.0104627 1.36663e-17 7.67405e-18
0.0112732 3.73422e-18 2.61898e-18
0.0120853 -7.77397e-18 -2.72799e-18
0.0128998 -1.26317e-17 -4.11141e-18
0.0137151 -7.01196e-18 -1.38843e-18
0.0145236 4.28416e-18 4.14869e-18
0.0153149 1.66988e-17 8.32798e-18
0.016 9.34047e-18 3.97639e-18
0 0 0
0.000731383 -5.75118e-05 -6.67792e-19
0.00152468 -9.56371e-05 7.87012e-19
0.00234512 -0.000111005 5.15e-18
0.00316655 -0.000114037 9.95049e-18
0.00398317 -0.000113808 1.11445e-17
0.00479595 -0.000113056 6.81788e-18
0.00560658 -0.000112507 -2.0394e-18
0.00641622 -0.000112211 -1.15469e-17
0.00722547 -0.000112081 -1.72479e-17
0.0080346 -0.000112044 -1.7166e-17
0.00884374 -0.000112068 -1.34917e-17
0.00965298 -0.000112158 -1.00441e-17
0.0104625 -0.000112345 -9.08704e-18
0.0112727 -0.000112648 -1.28715e-17
0.0120842 -0.000112936 -1.61636e-17
0.0128977 -0.00011255 -1.65881e-17
0.0137126 -0.000108907 -1.31137e-17
0.0145222 -9.76958e-05 -7.14352e-18
0.015315 -8.0458e-05 -2.84619e-18
0.016 -7.00792e-05 1.13536e-18
0 0 0
0.000740904 -0.000130148 1.54404e-19
0.00154831 -0.000202893 1.41543e-18
0.00236079 -0.000222882 4.30288e-18
0.00317453 -0.000227215 6.62359e-18
0.00398654 -0.000226719 6.27018e-18
0.00479714 -0.000225576 2.19362e-18
0.0056069 -0.000224754 -4.86186e-18
0.00641625 -0.000224316 -1.21886e-17
0.00722544 -0.000224125 -1.65685e-17
0.00803458 -0.000224071 -1.72431e-17
0.00884372 -0.000224106 -1.49208e-17
0.00965291 -0.000224239 -1.29145e-17
0.0104622 -0.000224519 -1.17968e-17
0.0112718 -0.000224976 -1.40832e-17
0.0120818 -0.000225442 -1.60361e-17
0.0128926 -0.000224919 -1.5639e-17
0.0137036 -0.000220459 -1.38899e-17
0.0145145 -0.000200939 -9.53126e-18
0.0153129 -0.000158723 -6.30901e-18
0.016 -0.000131101 -1.92638e-19
0 0 0
0.000812158 -0.000251555 6.88463e-19
0.00158427 -0.000313795 1.70661e-18
0.00237581 -0.000334837 2.75788e-18
0.00317997 -0.000338853 3.59669e-18
0.00398809 -0.000338541 3.6214e-18
0.00479736 -0.000337495 2.03576e-18
0.00560678 -0.00033673 2.10182e-19
0.00641612 -0.000336317 -1.76075e-18
0.00722537 -0.000336136 -3.19297e-18
0.00803457 -0.000336084 -3.77975e-18
0.00884376 -0.000336117 -3.84099e-18
0.00965297 -0.000336244 -3.35457e-18
0.0104622 -0.000336508 -2.78995e-18
0.0112715 -0.000336934 -3.20792e-18
0.0120805 -0.000337332 -3.11778e-18
0.0128884 -0.000336843 -2.20659e-18
0.0136926 -0.00033208 -1.80038e-18
0.0144883 -0.000315514 -9.92152e-19
0.0152847 -0.000237946 -4.52631e-19
0.016 -0.000176413 -4.94022e-20
0 0 0
0.00081465 0.000249488 -5.72392e-05
0.0015898 0.000311076 -9.49868e-05
0.00238204 0.000333376 -0.000110502
0.00318357 0.000338164 -0.000113827
0.00398982 0.000338304 -0.00011376
0.00479805 0.000337433 -0.000113057