<?xml version="1.0"?>
<VTKFile type="UnstructuredGrid" version="0.1" byte_order="LittleEndian">
<UnstructuredGrid>
<Piece NumberOfPoints="1029" NumberOfCells="720">
<Points>
<DataArray type="Float32" NumberOfComponents="3" format="ascii">
0 0 0
0.005 0 0
0.01 0 0
0.015 0 0
0.02 0 0
0.025 0 0
0.03 0 0
0.035 0 0
0.04 0 0
0.045 0 0
0.05 0 0
0.055 0 0
0.06 0 0
0.065 0 0
0.07 0 0
0.075 0 0
0.08 0 0
0.085 0 0
0.09 0 0
0.095 0 0
0.1 0 0
0 0.005 0
0.005 0.005 0
0.01 0.005 0
0.015 0.005 0
0.02 0.005 0
0.025 0.005 0
0.03 0.005 0
0.035 0.005 0
0.04 0.005 0
0.045 0.005 0
0.05 0.005 0
0.055 0.005 0
0.06 0.005 0
0.065 0.005 0
0.07 0.005 0
0.075 0.005 0
0.08 0.005 0
0.085 0.005 0
0.09 0.005 0
0.095 0.005 0
0.1 0.005 0
0 0.01 0
0.005 0.01 0
0.01 0.01 0
0.015 0.01 0
0.02 0.01 0
0.025 0.01 0
0.03 0.01 0
0.035 0.01 0
0.04 0.01 0
0.045 0.01 0
0.05 0.01 0
0.055 0.01 0
0.06 0.01 0
0.065 0.01 0
0.07 0.01 0
0.075 0.01 0
0.08 0.01 0
0.085 0.01 0
0.09 0.01 0
0.095 0.01 0
0.1 0.01 0
0 0.015 0
0.005 0.015 0
0.01 0.015 0
0.015 0.015 0
0.02 0.015 0
0.025 0.015 0
0.03 0.015 0
0.035 0.015 0
0.04 0.015 0
0.045 0.015 0
0.05 0.015 0
0.055 0.015 0
0.06 0.015 0
0.065 0.015 0
0.07 0.015 0
0.075 0.015 0
0.08 0.015 0
0.085 0.015 0
0.09 0.015 0
0.095 0.015 0
0.1 0.015 0
0 0.02 0
0.005 0.02 0
0.01 0.02 0
0.015 0.02 0
0.02 0.02 0
0.025 0.02 0
0.03 0.02 0
0.035 0.02 0
0.04 0.02 0
0.045 0.02 0
0.05 0.02 0
0.055 0.02 0
0.06 0.02 0
0.065 0.02 0
0.07 0.02 0
0.075 0.02 0
0.08 0.02 0
0.085 0.02 0
0.09 0.02 0
0.095 0.02 0
0.1 0.02 0
0 0.025 0
0.005 0.025 0
0.01 0.025 0
0.015 0.025 0
0.02 0.025 0
0.025 0.025 0
0.03 0.025 0
0.035 0.025 0
0.04 0.025 0
0.045 0.025 0
0.05 0.025 0
0.055 0.025 0
0.06 0.025 0
0.065 0.025 0
0.07 0.025 0
0.075 0.025 0
0.08 0.025 0
0.085 0.025 0
0.09 0.025 0
0.095 0.025 0
0.1 0.025 0
0 0.03 0
0.005 0.03 0
0.01 0.03 0
0.015 0.03 0
0.02 0.03 0
0.025 0.03 0
0.03 0.03 0
0.035 0.03 0
0.04 0.03 0
0.045 0.03 0
0.05 0.03 0
0.055 0.03 0
0.06 0.03 0
0.065 0.03 0
0.07 0.03 0
0.075 0.03 0
0.08 0.03 0
0.085 0.03 0
0.09 0.03 0
0.095 0.03 0
0.1 0.03 0
0 0 0.005
0.005 0 0.005
0.01 0 0.005
0.015 0 0.005
0.02 0 0.005
0.025 0 0.005
0.03 0 0.005
0.035 0 0.005
0.04 0 0.005
0.045 0 0.005
0.05 0 0.005
0.055 0 0.005
0.06 0 0.005
0.065 0 0.005
0.07 0 0.005
0.075 0 0.005
0.08 0 0.005
0.085 0 0.005
0.09 0 0.005
0.095 0 0.005
0.1 0 0.005
0 0.005 0.005
0.005 0.005 0.005
0.01 0.005 0.005
0.015 0.005 0.005
0.02 0.005 0.005
0.025 0.005 0.005
0.03 0.005 0.005
0.035 0.005 0.005
0.04 0.005 0.005
0.045 0.005 0.005
0.05 0.005 0.005
0.055 0.005 0.005
0.06 0.005 0.005
0.065 0.005 0.005
0.07 0.005 0.005
0.075 0.005 0.005
0.08 0.005 0.005
0.085 0.005 0.005
0.09 0.005 0.005
0.095 0.005 0.005
0.1 0.005 0.005
0 0.01 0.005
0.005 0.01 0.005
0.01 0.01 0.005
0.015 0.01 0.005
0.02 0.01 0.005
0.025 0.01 0.005
0.03 0.01 0.005
0.035 0.01 0.005
0.04 0.01 0.005
0.045 0.01 0.005
0.05 0.01 0.005
0.055 0.01 0.005
0.06 0.01 0.005
0.065 0.01 0.005
0.07 0.01 0.005
0.075 0.01 0.005
0.08 0.01 0.005
0.085 0.01 0.005
0.09 0.01 0.005
0.095 0.01 0.005
0.1 0.01 0.005
0 0.015 0.005
0.005 0.015 0.005
0.01 0.015 0.005
0.015 0.015 0.005
0.02 0.015 0.005
0.025 0.015 0.005
0.03 0.015 0.005
0.035 0.015 0.005
0.04 0.015 0.005
0.045 0.015 0.005
0.05 0.015 0.005
0.055 0.015 0.005
0.06 0.015 0.005
0.065 0.015 0.005
0.07 0.015 0.005
0.075 0.015 0.005
0.08 0.015 0.005
0.085 0.015 0.005
0.09 0.015 0.005
0.095 0.015 0.005
0.1 0.015 0.005
0 0.02 0.005
0.005 0.02 0.005
0.01 0.02 0.005
0.015 0.02 0.005
0.02 0.02 0.005
0.025 0.02 0.005
0.03 0.02 0.005
0.035 0.02 0.005
0.04 0.02 0.005
0.045 0.02 0.005
0.05 0.02 0.005
0.055 0.02 0.005
0.06 0.02 0.005
0.065 0.02 0.005
0.07 0.02 0.005
0.075 0.02 0.005
0.08 0.02 0.005
0.085 0.02 0.005
0.09 0.02 0.005
0.095 0.02 0.005
0.1 0.02 0.005
0 0.025 0.005
0.005 0.025 0.005
0.01 0.025 0.005
0.015 0.025 0.005
0.02 0.025 0.005
0.025 0.025 0.005
0.03 0.025 0.005
0.035 0.025 0.005
0.04 0.025 0.005
0.045 0.025 0.005
0.05 0.025 0.005
0.055 0.025 0.005
0.06 0.025 0.005
0.065 0.025 0.005
0.07 0.025 0.005
0.075 0.025 0.005
0.08 0.025 0.005
0.085 0.025 0.005
0.09 0.025 0.005
0.095 0.025 0.005
0.1 0.025 0.005
0 0.03 0.005
0.005 0.03 0.005
0.01 0.03 0.005
0.015 0.03 0.005
0.02 0.03 0.005
0.025 0.03 0.005
0.03 0.03 0.005
0.035 0.03 0.005
0.04 0.03 0.005
0.045 0.03 0.005
0.05 0.03 0.005
0.055 0.03 0.005
0.06 0.03 0.005
0.065 0.03 0.005
0.07 0.03 0.005
0.075 0.03 0.005
0.08 0.03 0.005
0.085 0.03 0.005
0.09 0.03 0.005
0.095 0.03 0.005
0.1 0.03 0.005
0 0 0.01
0.005 0 0.01
0.01 0 0.01
0.015 0 0.01
0.02 0 0.01
0.025 0 0.01
0.03 0 0.01
0.035 0 0.01
0.04 0 0.01
0.045 0 0.01
0.05 0 0.01
0.055 0 0.01
0.06 0 0.01
0.065 0 0.01
0.07 0 0.01
0.075 0 0.01
0.08 0 0.01
0.085 0 0.01
0.09 0 0.01
0.095 0 0.01
0.1 0 0.01
0 0.005 0.01
0.005 0.005 0.01
0.01 0.005 0.01
0.015 0.005 0.01
0.02 0.005 0.01
0.025 0.005 0.01
0.03 0.005 0.01
0.035 0.005 0.01
0.04 0.005 0.01
0.045 0.005 0.01
0.05 0.005 0.01
0.055 0.005 0.01
0.06 0.005 0.01
0.065 0.005 0.01
0.07 0.005 0.01
0.075 0.005 0.01
0.08 0.005 0.01
0.085 0.005 0.01
0.09 0.005 0.01
0.095 0.005 0.01
0.1 0.005 0.01
0 0.01 0.01
0.005 0.01 0.01
0.01 0.01 0.01
0.015 0.01 0.01
0.02 0.01 0.01
0.025 0.01 0.01
0.03 0.01 0.01
0.035 0.01 0.01
0.04 0.01 0.01
0.045 0.01 0.01
0.05 0.01 0.01
0.055 0.01 0.01
0.06 0.01 0.01
0.065 0.01 0.01
0.07 0.01 0.01
0.075 0.01 0.01
0.08 0.01 0.01
0.085 0.01 0.01
0.09 0.01 0.01
0.095 0.01 0.01
0.1 0.01 0.01
0 0.015 0.01
0.005 0.015 0.01
0.01 0.015 0.01
0.015 0.015 0.01
0.02 0.015 0.01
0.025 0.015 0.01
0.03 0.015 0.01
0.035 0.015 0.01
0.04 0.015 0.01
0.045 0.015 0.01
0.05 0.015 0.01
0.055 0.015 0.01
0.06 0.015 0.01
0.065 0.015 0.01
0.07 0.015 0.01
0.075 0.015 0.01
0.08 0.015 0.01
0.085 0.015 0.01
0.09 0.015 0.01
0.095 0.015 0.01
0.1 0.015 0.01
0 0.02 0.01
0.005 0.02 0.01
0.01 0.02 0.01
0.015 0.02 0.01
0.02 0.02 0.01
0.025 0.02 0.01
0.03 0.02 0.01
0.035 0.02 0.01
0.04 0.02 0.01
0.045 0.02 0.01
0.05 0.02 0.01
0.055 0.02 0.01
0.06 0.02 0.01
0.065 0.02 0.01
0.07 0.02 0.01
0.075 0.02 0.01
0.08 0.02 0.01
0.085 0.02 0.01
0.09 0.02 0.01
0.095 0.02 0.01
0.1 0.02 0.01
0 0.025 0.01
0.005 0.025 0.01
0.01 0.025 0.01
0.015 0.025 0.01
0.02 0.025 0.01
0.025 0.025 0.01
0.03 0.025 0.01
0.035 0.025 0.01
0.04 0.025 0.01
0.045 0.025 0.01
0.05 0.025 0.01
0.055 0.025 0.01
0.06 0.025 0.01
0.065 0.025 0.01
0.07 0.025 0.01
0.075 0.025 0.01
0.08 0.025 0.01
0.085 0.025 0.01
0.09 0.025 0.01
0.095 0.025 0.01
0.1 0.025 0.01
0 0.03 0.01
0.005 0.03 0.01
0.01 0.03 0.01
0.015 0.03 0.01
0.02 0.03 0.01
0.025 0.03 0.01
0.03 0.03 0.01
0.035 0.03 0.01
0.04 0.03 0.01
0.045 0.03 0.01
0.05 0.03 0.01
0.055 0.03 0.01
0.06 0.03 0.01
0.065 0.03 0.01
0.07 0.03 0.01
0.075 0.03 0.01
0.08 0.03 0.01
0.085 0.03 0.01
0.09 0.03 0.01
0.095 0.03 0.01
0.1 0.03 0.01
0 0 0.015
0.005 0 0.015
0.01 0 0.015
0.015 0 0.015
0.02 0 0.015
0.025 0 0.015
0.03 0 0.015
0.035 0 0.015
0.04 0 0.015
0.045 0 0.015
0.05 0 0.015
0.055 0 0.015
0.06 0 0.015
0.065 0 0.015
0.07 0 0.015
0.075 0 0.015
0.08 0 0.015
0.085 0 0.015
0.09 0 0.015
0.095 0 0.015
0.1 0 0.015
0 0.005 0.015
0.005 0.005 0.015
0.01 0.005 0.015
0.015 0.005 0.015
0.02 0.005 0.015
0.025 0.005 0.015
0.03 0.005 0.015
0.035 0.005 0.015
0.04 0.005 0.015
0.045 0.005 0.015
0.05 0.005 0.015
0.055 0.005 0.015
0.06 0.005 0.015
0.065 0.005 0.015
0.07 0.005 0.015
0.075 0.005 0.015
0.08 0.005 0.015
0.085 0.005 0.015
0.09 0.005 0.015
0.095 0.005 0.015
0.1 0.005 0.015
0 0.01 0.015
0.005 0.01 0.015
0.01 0.01 0.015
0.015 0.01 0.015
0.02 0.01 0.015
0.025 0.01 0.015
0.03 0.01 0.015
0.035 0.01 0.015
0.04 0.01 0.015
0.045 0.01 0.015
0.05 0.01 0.015
0.055 0.01 0.015
0.06 0.01 0.015
0.065 0.01 0.015
0.07 0.01 0.015
0.075 0.01 0.015
0.08 0.01 0.015
0.085 0.01 0.015
0.09 0.01 0.015
0.095 0.01 0.015
0.1 0.01 0.015
0 0.015 0.015
0.005 0.015 0.015
0.01 0.015 0.015
0.015 0.015 0.015
0.02 0.015 0.015
0.025 0.015 0.015
0.03 0.015 0.015
0.035 0.015 0.015
0.04 0.015 0.015
0.045 0.015 0.015
0.05 0.015 0.015
0.055 0.015 0.015
0.06 0.015 0.015
0.065 0.015 0.015
0.07 0.015 0.015
0.075 0.015 0.015
0.08 0.015 0.015
0.085 0.015 0.015
0.09 0.015 0.015
0.095 0.015 0.015
0.1 0.015 0.015
0 0.02 0.015
0.005 0.02 0.015
0.01 0.02 0.015
0.015 0.02 0.015
0.02 0.02 0.015
0.025 0.02 0.015
0.03 0.02 0.015
0.035 0.02 0.015
0.04 0.02 0.015
0.045 0.02 0.015
0.05 0.02 0.015
0.055 0.02 0.015
0.06 0.02 0.015
0.065 0.02 0.015
0.07 0.02 0.015
0.075 0.02 0.015
0.08 0.02 0.015
0.085 0.02 0.015
0.09 0.02 0.015
0.095 0.02 0.015
0.1 0.02 0.015
0 0.025 0.015
0.005 0.025 0.015
0.01 0.025 0.015
0.015 0.025 0.015
0.02 0.025 0.015
0.025 0.025 0.015
0.03 0.025 0.015
0.035 0.025 0.015
0.04 0.025 0.015
0.045 0.025 0.015
0.05 0.025 0.015
0.055 0.025 0.015
0.06 0.025 0.015
0.065 0.025 0.015
0.07 0.025 0.015
0.075 0.025 0.015
0.08 0.025 0.015
0.085 0.025 0.015
0.09 0.025 0.015
0.095 0.025 0.015
0.1 0.025 0.015
0 0.03 0.015
0.005 0.03 0.015
0.01 0.03 0.015
0.015 0.03 0.015
0.02 0.03 0.015
0.025 0.03 0.015
0.03 0.03 0.015
0.035 0.03 0.015
0.04 0.03 0.015
0.045 0.03 0.015
0.05 0.03 0.015
0.055 0.03 0.015
0.06 0.03 0.015
0.065 0.03 0.015
0.07 0.03 0.015
0.075 0.03 0.015
0.08 0.03 0.015
0.085 0.03 0.015
0.09 0.03 0.015
0.095 0.03 0.015
0.1 0.03 0.015
0 0 0.02
0.005 0 0.02
0.01 0 0.02
0.015 0 0.02
0.02 0 0.02
0.025 0 0.02
0.03 0 0.02
0.035 0 0.02
0.04 0 0.02
0.045 0 0.02
0.05 0 0.02
0.055 0 0.02
0.06 0 0.02
0.065 0 0.02
0.07 0 0.02
0.075 0 0.02
0.08 0 0.02
0.085 0 0.02
0.09 0 0.02
0.095 0 0.02
0.1 0 0.02
0 0.005 0.02
0.005 0.005 0.02
0.01 0.005 0.02
0.015 0.005 0.02
0.02 0.005 0.02
0.025 0.005 0.02
0.03 0.005 0.02
0.035 0.005 0.02
0.04 0.005 0.02
0.045 0.005 0.02
0.05 0.005 0.02
0.055 0.005 0.02
0.06 0.005 0.02
0.065 0.005 0.02
0.07 0.005 0.02
0.075 0.005 0.02
0.08 0.005 0.02
0.085 0.005 0.02
0.09 0.005 0.02
0.095 0.005 0.02
0.1 0.005 0.02
0 0.01 0.02
0.005 0.01 0.02
0.01 0.01 0.02
0.015 0.01 0.02
0.02 0.01 0.02
0.025 0.01 0.02
0.03 0.01 0.02
0.035 0.01 0.02
0.04 0.01 0.02
0.045 0.01 0.02
0.05 0.01 0.02
0.055 0.01 0.02
0.06 0.01 0.02
0.065 0.01 0.02
0.07 0.01 0.02
0.075 0.01 0.02
0.08 0.01 0.02
0.085 0.01 0.02
0.09 0.01 0.02
0.095 0.01 0.02
[...]
<PointData Vectors="Displacement">
<DataArray type="Float32" Name="Displacement" NumberOfComponents="3" format="ascii">
0 0 0
0.00214794 0.000671211 0.000671211
0.00407305 0.000800286 0.000800286
0.00603682 0.000858459 0.000858459
0.00805459 0.000871183 0.000871183
0.0101015 0.000873541 0.000873541
0.0121618 0.00087306 0.00087306
0.0142272 0.00087248 0.00087248
0.0162941 0.000872142 0.000872142
0.0183614 0.000871995 0.000871995
0.0204288 0.000871944 0.000871944
0.0224961 0.000871938 0.000871938
0.0245634 0.000871961 0.000871961
0.0266306 0.000872014 0.000872014
0.0286974 0.000872082 0.000872082
0.0307633 0.000872005 0.000872005
0.0328269 0.000871276 0.000871276
0.0348859 0.000867596 0.000867596
0.0369387 0.000858338 0.000858338
0.0389959 0.000814021 0.000814021
0.041 0.000779271 0.000779271
0 0 0
0.00200133 0.000367356 0.000683721
0.00400262 0.000534199 0.000812837
0.00600784 0.000574924 0.000861463
0.00804444 0.0005842 0.000872291
0.0100986 0.000583961 0.000873716
0.0121612 0.000582725 0.00087306
0.0142272 0.000581887 0.00087245
0.0162942 0.000581496 0.000872123
0.0183615 0.000581344 0.000871986
0.0204288 0.000581297 0.00087194
0.0224961 0.000581295 0.000871935
0.0245634 0.000581323 0.000871958
0.0266306 0.000581392 0.000872011
0.0286976 0.000581513 0.00087209
0.030764 0.000581619 0.000872073
0.0328289 0.000581195 0.000871494
0.0348911 0.000578743 0.000868417
0.0369512 0.000567933 0.000860311
0.0390092 0.000542222 0.000812514
0.041 0.000525221 0.000773319
0 0 0
0.00197622 0.000168157 0.000721601
0.00394714 0.000260893 0.000833531
0.00597614 0.000289755 0.000870686
0.00802998 0.000293596 0.00087497
0.0100932 0.00029282 0.000874349
0.0121596 0.000291695 0.000873101
0.0142268 0.000291061 0.000872398
0.0162941 0.000290782 0.000872082
0.0183615 0.000290679 0.000871965
0.0204288 0.000290649 0.00087193
0.0224961 0.000290649 0.000871929
0.0245634 0.000290669 0.000871952
0.0266307 0.00029072 0.00087201
0.028698 0.000290821 0.000872125
0.030765 0.000290939 0.000872247
0.0328314 0.000290828 0.000872128
0.0348959 0.000289145 0.000869985
0.0369551 0.000282657 0.000862815
0.0390098 0.000271212 0.000810033
0.041 0.00026434 0.000765062
0 0 0
0.00196993 -2.3049e-18 0.000732809
0.00393252 -4.68732e-18 0.000844428
0.00596247 -4.87657e-18 0.000874789
0.00802366 -3.08361e-18 0.000876454
0.0100907 -1.67019e-19 0.000874679
0.0121587 2.19603e-18 0.000873141
0.0142265 3.04593e-18 0.000872377
0.0162941 3.09474e-18 0.000872063
0.0183615 3.39231e-18 0.000871955
0.0204288 7.00379e-18 0.000871925
0.0224961 9.49739e-18 0.000871926
0.0245635 1.12124e-17 0.000871949
0.0266308 9.72388e-18 0.00087201
0.0286982 6.59184e-18 0.000872144
0.0307655 2.75587e-18 0.000872344
0.0328325 5.93035e-19 0.000872423
0.0348974 8.18551e-19 0.000870736
0.0369558 1.72433e-18 0.000863459
0.0390095 1.68811e-18 0.000808904
0.041 2.04273e-18 0.000762362
0 0 0
0.00197622 -0.000168157 0.000721601
0.00394714 -0.000260893 0.000833531
0.00597614 -0.000289755 0.000870686
0.00802998 -0.000293596 0.00087497
0.0100932 -0.00029282 0.000874349
0.0121596 -0.000291695 0.000873101
0.0142268 -0.000291061 0.000872398
0.0162941 -0.000290782 0.000872082
0.0183615 -0.000290679 0.000871965
0.0204288 -0.000290649 0.00087193
0.0224961 -0.000290649 0.000871929
0.0245634 -0.000290669 0.000871952
0.0266307 -0.00029072 0.00087201
0.028698 -0.000290821 0.000872125
0.030765 -0.000290939 0.000872247
0.0328314 -0.000290828 0.000872128
0.0348959 -0.000289145 0.000869985
0.0369551 -0.000282657 0.000862815
0.0390098 -0.000271212 0.000810033
0.041 -0.00026434 0.000765062
0 0 0
0.00200133 -0.000367356 0.000683721
0.00400262 -0.000534199 0.000812837
0.00600784 -0.000574924 0.000861463
0.00804444 -0.0005842 0.000872291
0.0100986 -0.000583961 0.000873716
0.0121612 -0.000582725 0.00087306
0.0142272 -0.000581887 0.00087245
0.0162942 -0.000581496 0.000872123
0.0183615 -0.000581344 0.000871986
0.0204288 -0.000581297 0.00087194
0.0224961 -0.000581295 0.000871935
0.0245634 -0.000581323 0.000871958
0.0266306 -0.000581392 0.000872011
0.0286976 -0.000581513 0.00087209
0.030764 -0.000581619 0.000872073
0.0328289 -0.000581195 0.000871494
0.0348911 -0.000578743 0.000868417
0.0369512 -0.000567933 0.000860311
0.0390092 -0.000542222 0.000812514
0.041 -0.000525221 0.000773319
0 0 0
0.00214794 -0.000671211 0.000671211
0.00407305 -0.000800286 0.000800286
0.00603682 -0.000858459 0.000858459
0.00805459 -0.000871183 0.000871183
0.0101015 -0.000873541 0.000873541
0.0121618 -0.00087306 0.00087306
0.0142272 -0.00087248 0.00087248
0.0162941 -0.000872142 0.000872142
0.0183614 -0.000871995 0.000871995
0.0204288 -0.000871944 0.000871944
0.0224961 -0.000871938 0.000871938
0.0245634 -0.000871961 0.000871961
0.0266306 -0.000872014 0.000872014
0.0286974 -0.000872082 0.000872082
0.0307633 -0.000872005 0.000872005
0.0328269 -0.000871276 0.000871276
0.0348859 -0.000867596 0.000867596
0.0369387 -0.000858338 0.000858338
0.0389959 -0.000814021 0.000814021
0.041 -0.000779271 0.000779271
0 0 0
0.00200133 0.000683721 0.000367356
0.00400262 0.000812837 0.000534199
0.00600784 0.000861463 0.000574924
0.00804444 0.000872291 0.0005842
0.0100986 0.000873716 0.000583961
0.0121612 0.00087306 0.000582725
0.0142272 0.00087245 0.000581887
0.0162942 0.000872123 0.000581496
0.0183615 0.000871986 0.000581344
0.0204288 0.00087194 0.000581297
0.0224961 0.000871935 0.000581295
0.0245634 0.000871958 0.000581323
0.0266306 0.000872011 0.000581392
0.0286976 0.00087209 0.000581513
0.030764 0.000872073 0.000581619
0.0328289 0.000871494 0.000581195
0.0348911 0.000868417 0.000578743
0.0369512 0.000860311 0.000567933
0.0390092 0.000812514 0.000542222
0.041 0.000773319 0.000525221
0 0 0
0.00184816 0.000365584 0.000365584
0.00393538 0.000534249 0.000534249
0.00598189 0.000574529 0.000574529
0.00803535 0.000583912 0.000583912
0.010096 0.00058386 0.00058386
0.0121607 0.000582687 0.000582687
0.0142272 0.000581879 0.000581879
0.0162942 0.000581495 0.000581495
0.0183615 0.000581345 0.000581345
0.0204288 0.000581298 0.000581298
0.0224961 0.000581295 0.000581295
0.0245634 0.000581322 0.000581322
0.0266307 0.00058139 0.00058139
0.0286978 0.000581506 0.000581506
0.0307646 0.000581601 0.000581601
0.0328308 0.000581163 0.000581163
0.034896 0.0005788 0.0005788
0.0369644 0.000568073 0.000568073
0.0390239 0.000541896 0.000541896
0.041 0.000524009 0.000524009
0 0 0
0.00182254 0.000162439 0.000383724
0.00388208 0.00025687 0.000548458
0.00595266 0.000287846 0.000580522
0.00802232 0.000292856 0.000585777
0.0100912 0.000292598 0.000584259
0.0121592 0.00029165 0.00058271
0.0142268 0.00029106 0.00058184
0.0162942 0.000290787 0.000581467
0.0183615 0.000290683 0.00058133
0.0204288 0.000290651 0.000581291
0.0224961 0.00029065 0.000581291
0.0245634 0.000290669 0.000581318
0.0266308 0.000290718 0.000581388
0.0286981 0.000290807 0.000581528
0.0307655 0.000290889 0.000581723
0.0328331 0.000290698 0.00058159
0.0349007 0.000288889 0.00057987
0.0369689 0.000282426 0.000569208
0.0390253 0.000271406 0.000540148
0.041 0.000264648 0.000519383
0 0 0
0.00181525 -6.25298e-18 0.000391448
0.0038684 -1.16353e-17 0.000555507
0.00594016 -1.27568e-17 0.00058382
0.00801659 -7.09774e-18 0.000586866
0.0100889 2.54491e-18 0.000584526
0.0121585 9.28944e-18 0.000582739
0.0142266 1.03976e-17 0.000581825
0.0162942 8.34525e-18 0.000581453
0.0183615 1.01156e-17 0.000581323
0.0204288 2.04832e-17 0.000581288
0.0224961 3.20399e-17 0.000581288
0.0245635 3.86913e-17 0.000581316
0.0266308 3.54454e-17 0.000581388
0.0286983 2.43259e-17 0.000581543
0.030766 1.26351e-17 0.000581796
0.0328341 6.37872e-18 0.000581828
0.0349021 4.56822e-18 0.000580375
0.0369698 4.49715e-18 0.00056956
0.0390253 7.06711e-18 0.000539342
0.041 4.82702e-18 0.000517597
0 0 0
0.00182254 -0.000162439 0.000383724
0.00388208 -0.00025687 0.000548458
0.00595266 -0.000287846 0.000580522
0.00802232 -0.000292856 0.000585777
0.0100912 -0.000292598 0.000584259
0.0121592 -0.00029165 0.00058271
0.0142268 -0.00029106 0.00058184
0.0162942 -0.000290787 0.000581467
0.0183615 -0.000290683 0.00058133
0.0204288 -0.000290651 0.000581291
0.0224961 -0.00029065 0.000581291
0.0245634 -0.000290669 0.000581318
0.0266308 -0.000290718 0.000581388
0.0286981 -0.000290807 0.000581528
0.0307655 -0.000290889 0.000581723
0.0328331 -0.000290698 0.00058159
0.0349007 -0.000288889 0.00057987
0.0369689 -0.000282426 0.000569208
0.0390253 -0.000271406 0.000540148
0.041 -0.000264648 0.000519383
0 0 0
0.00184816 -0.000365584 0.000365584
0.00393538 -0.000534249 0.000534249
0.00598189 -0.000574529 0.000574529
0.00803535 -0.000583912 0.000583912
0.010096 -0.00058386 0.00058386
0.0121607 -0.000582687 0.000582687
0.0142272 -0.000581879 0.000581879
0.0162942 -0.000581495 0.000581495
0.0183615 -0.000581345 0.000581345
0.0204288 -0.000581298 0.000581298
0.0224961 -0.000581295 0.000581295
0.0245634 -0.000581322 0.000581322
0.0266307 -0.00058139 0.00058139
0.0286978 -0.000581506 0.000581506
0.0307646 -0.000581601 0.000581601
0.0328308 -0.000581163 0.000581163
0.034896 -0.0005788 0.0005788
0.0369644 -0.000568073 0.000568073
0.0390239 -0.000541896 0.000541896
0.041 -0.000524009 0.000524009
0 0 0
0.00200133 -0.000683721 0.000367356
0.00400262 -0.000812837 0.000534199
0.00600784 -0.000861463 0.000574924
0.00804444 -0.000872291 0.0005842
0.0100986 -0.000873716 0.000583961
0.0121612 -0.00087306 0.000582725
0.0142272 -0.00087245 0.000581887
0.0162942 -0.000872123 0.000581496
0.0183615 -0.000871986 0.000581344
0.0204288 -0.00087194 0.000581297
0.0224961 -0.000871935 0.000581295
0.0245634 -0.000871958 0.000581323
0.0266306 -0.000872011 0.000581392
0.0286976 -0.00087209 0.000581513
0.030764 -0.000872073 0.000581619
0.0328289 -0.000871494 0.000581195
0.0348911 -0.000868417 0.000578743
0.0369512 -0.000860311 0.000567933
0.0390092 -0.000812514 0.000542222
0.041 -0.000773319 0.000525221
0 0 0
0.00197622 0.000721601 0.000168157
0.00394714 0.000833531 0.000260893
0.00597614 0.000870686 0.000289755
0.00802998 0.00087497 0.000293596
0.0100932 0.000874349 0.00029282
0.0121596 0.000873101 0.000291695
0.0142268 0.000872398 0.000291061
0.0162941 0.000872082 0.000290782
0.0183615 0.000871965 0.000290679
0.0204288 0.00087193 0.000290649
0.0224961 0.000871929 0.000290649
0.0245634 0.000871952 0.000290669
0.0266307 0.00087201 0.00029072
0.028698 0.000872125 0.000290821
0.030765 0.000872247 0.000290939
0.0328314 0.000872128 0.000290828
0.0348959 0.000869985 0.000289145
0.0369551 0.000862815 0.000282657
0.0390098 0.000810033 0.000271212
0.041 0.000765062 0.00026434
0 0 0
0.00182254 0.000383724 0.000162439
0.00388208 0.000548458 0.00025687
0.00595266 0.000580522 0.000287846
0.00802232 0.000585777 0.000292856
0.0100912 0.000584259 0.000292598
0.0121592 0.00058271 0.00029165
0.0142268 0.00058184 0.00029106
0.0162942 0.000581467 0.000290787
0.0183615 0.00058133 0.000290683
0.0204288 0.000581291 0.000290651
0.0224961 0.000581291 0.00029065
0.0245634 0.000581318 0.000290669
0.0266308 0.000581388 0.000290718
0.0286981 0.000581528 0.000290807
0.0307655 0.000581723 0.000290889
0.0328331 0.00058159 0.000290698
0.0349007 0.00057987 0.000288889
0.0369689 0.000569208 0.000282426
0.0390253 0.000540148 0.000271406
0.041 0.000519383 0.000264648
0 0 0
0.00179896 0.00016993 0.00016993
0.00382637 0.00026291 0.00026291
0.00592328 0.000290707 0.000290707
0.00800964 0.000293723 0.000293723
0.0100867 0.000292777 0.000292777
0.0121578 0.000291654 0.000291654
0.0142265 0.00029104 0.00029104
0.0162942 0.000290773 0.000290773
0.0183615 0.000290676 0.000290676
0.0204288 0.000290648 0.000290648
0.0224961 0.000290648 0.000290648
0.0245635 0.000290667 0.000290667
0.0266308 0.000290717 0.000290717
0.0286984 0.000290817 0.000290817
0.0307665 0.000290948 0.000290948
0.0328354 0.000290908 0.000290908
0.0349057 0.000289348 0.000289348
0.0369734 0.000282796 0.000282796
0.0390261 0.000270625 0.000270625
0.041 0.000262746 0.000262746
0 0 0
0.00179228 -4.11019e-18 0.000173296
0.00381229 -8.89476e-18 0.000266158
0.00591039 -1.08634e-17 0.000292338
0.00800401 -5.42435e-18 0.000294286
0.0100845 5.82138e-18 0.00029291
0.0121571 1.59381e-17 0.000291668
0.0142263 1.83861e-17 0.000291032
0.0162941 1.70936e-17 0.000290766
0.0183615 1.88085e-17 0.000290673
0.0204288 2.94169e-17 0.000290647
0.0224961 4.19566e-17 0.000290647
0.0245635 4.79303e-17 0.000290666
0.0266309 4.28251e-17 0.000290717
0.0286986 3.09256e-17 0.000290825
0.0307669 2.06328e-17 0.000290986
0.0328364 1.54701e-17 0.000291028
0.0349072 1.40376e-17 0.000289577
0.0369743 1.23579e-17 0.000282925
0.0390259 1.2189e-17 0.000270239
0.041 6.16451e-18 0.000261923
0 0 0
0.00179896 -0.00016993 0.00016993
0.00382637 -0.00026291 0.00026291
0.00592328 -0.000290707 0.000290707
0.00800964 -0.000293723 0.000293723
0.0100867 -0.000292777 0.000292777
0.0121578 -0.000291654 0.000291654
0.0142265 -0.00029104 0.00029104
0.0162942 -0.000290773 0.000290773
0.0183615 -0.000290676 0.000290676
0.0204288 -0.000290648 0.000290648
0.0224961 -0.000290648 0.000290648
0.0245635 -0.000290667 0.000290667
0.0266308 -0.000290717 0.000290717
0.0286984 -0.000290817 0.000290817
0.0307665 -0.000290948 0.000290948
0.0328354 -0.000290908 0.000290908
0.0349057 -0.000289348 0.000289348
0.0369734 -0.000282796 0.000282796
0.0390261 -0.000270625 0.000270625
0.041 -0.000262746 0.000262746
0 0 0
0.00182254 -0.000383724 0.000162439
0.00388208 -0.000548458 0.00025687
0.00595266 -0.000580522 0.000287846
0.00802232 -0.000585777 0.000292856
0.0100912 -0.000584259 0.000292598
0.0121592 -0.00058271 0.00029165
0.0142268 -0.00058184 0.00029106
0.0162942 -0.000581467 0.000290787
0.0183615 -0.00058133 0.000290683
0.0204288 -0.000581291 0.000290651
0.0224961 -0.000581291 0.00029065
0.0245634 -0.000581318 0.000290669
0.0266308 -0.000581388 0.000290718
0.0286981 -0.000581528 0.000290807
0.0307655 -0.000581723 0.000290889
0.0328331 -0.00058159 0.000290698
0.0349007 -0.00057987 0.000288889
0.0369689 -0.000569208 0.000282426
0.0390253 -0.000540148 0.000271406
0.041 -0.000519383 0.000264648
0 0 0
0.00197622 -0.000721601 0.000168157
0.00394714 -0.000833531 0.000260893
0.00597614 -0.000870686 0.000289755
0.00802998 -0.00087497 0.000293596
0.0100932 -0.000874349 0.00029282
0.0121596 -0.000873101 0.000291695
0.0142268 -0.000872398 0.000291061
0.0162941 -0.000872082 0.000290782
0.0183615 -0.000871965 0.000290679
0.0204288 -0.00087193 0.000290649
0.0224961 -0.000871929 0.000290649
0.0245634 -0.000871952 0.000290669
0.0266307 -0.00087201 0.00029072
0.028698 -0.000872125 0.000290821
0.030765 -0.000872247 0.000290939
0.0328314 -0.000872128 0.000290828
0.0348959 -0.000869985 0.000289145
0.0369551 -0.000862815 0.000282657
0.0390098 -0.000810033 0.000271212
0.041 -0.000765062 0.00026434
0 0 0
0.00196993 0.000732809 -3.43685e-18
0.00393252 0.000844428 -5.73269e-18
0.00596247 0.000874789 -5.89212e-18
0.00802366 0.000876454 -4.94555e-18
0.0100907 0.000874679 -3.37961e-18
0.0121587 0.000873141 -2.15186e-18
0.0142265 0.000872377 -6.59227e-19
0.0162941 0.000872063 9.13994e-19
0.0183615 0.000871955 2.22645e-18
0.0204288 0.000871925 4.69961e-18
0.0224961 0.000871926 5.08748e-18
0.0245635 0.000871949 4.77997e-18
0.0266308 0.00087201 5.07984e-18
0.0286982 0.000872144 1.1441e-18
0.0307655 0.000872344 -7.12622e-19
0.0328325 0.000872423 -1.06041e-18
0.0348974 0.000870736 -1.68862e-18
0.0369558 0.000863459 1.38206e-19
0.0390095 0.000808904 6.25041e-19
0.041 0.000762362 1.85415e-18
0 0 0
0.00181525 0.000391448 -8.95699e-18
0.0038684 0.000555507 -1.47196e-17
0.00594016 0.00058382 -1.53916e-17
0.00801659 0.000586866 -1.29338e-17
0.0100889 0.000584526 -1.05657e-17
0.0121585 0.000582739 -7.5229e-18
0.0142266 0.000581825 -1.86657e-18
0.0162942 0.000581453 5.16232e-18
0.0183615 0.000581323 1.04299e-17
0.0204288 0.000581288 1.18745e-17
0.0224961 0.000581288 9.68008e-18
0.0245635 0.000581316 6.6204e-18
0.0266308 0.000581388 5.36155e-18
0.0286983 0.000581543 7.17465e-19
0.030766 0.000581796 -3.27308e-18
0.0328341 0.000581828 -5.2169e-18
0.0349021 0.000580375 -4.87526e-18
0.0369698 0.00056956 -1.51359e-19
0.0390253 0.000539342 1.13977e-18
0.041 0.000517597 -2.05255e-19
0 0 0
0.00179228 0.000173296 -1.16838e-17
0.00381229 0.000266158 -1.86906e-17
0.00591039 0.000292338 -1.74393e-17
0.00800401 0.000294286 -1.30704e-17
0.0100845 0.00029291 -1.09882e-17
0.0121571 0.000291668 -9.41718e-18
0.0142263 0.000291032 -4.80502e-18
0.0162941 0.000290766 2.92485e-18
0.0183615 0.000290673 9.13438e-18
0.0204288 0.000290647 1.10412e-17
0.0224961 0.000290647 9.50189e-18
0.0245635 0.000290666 7.65808e-18
0.0266309 0.000290717 7.63657e-18
0.0286986 0.000290825 3.19686e-18
0.0307669 0.000290986 -2.12809e-18
0.0328364 0.000291028 -6.46952e-18
0.0349072 0.000289577 -6.76129e-18
0.0369743 0.000282925 -3.81952e-19
0.0390259 0.000270239 1.74112e-18
0.041 0.000261923 2.2566e-19
0 0 0
0.0017857 7.17169e-18 -4.90457e-18
0.00379803 1.00688e-17 -5.50773e-18
0.00589729 8.96107e-18 -1.26314e-18
0.00799836 8.80118e-18 1.52315e-18
0.0100823 1.41476e-17 -1.32306e-18
0.0121564 2.11945e-17 -6.03421e-18
0.0142261 2.43137e-17 -6.65408e-18
0.0162941 2.33293e-17 -2.80111e-18
0.0183615 2.20642e-17 7.95555e-19
0.0204289 2.63212e-17 -1.18452e-20
0.0224961 3.10376e-17 -3.36963e-18
0.0245635 3.2002e-17 -3.06017e-18
0.0266309 2.96096e-17 2.03453e-18
0.0286987 2.62966e-17 3.95485e-18
0.0307673 2.71359e-17 3.76291e-18
0.0328375 3.00512e-17 1.55155e-18
0.0349088 2.97393e-17 -4.67221e-19
0.0369751 2.35667e-17 3.02736e-18
0.0390256 1.82595e-17 5.01484e-18
0.041 7.10324e-18 1.65838e-18
0 0 0
0.00179228 -0.000173296 3.04881e-18
0.00381229 -0.000266158 8.86888e-18
0.00591039 -0.000292338 1.51972e-17
0.00800401 -0.000294286 1.59232e-17
0.0100845 -0.00029291 8.46523e-18
0.0121571 -0.000291668 -1.18739e-18
0.0142263 -0.000291032 -6.84711e-18
0.0162941 -0.000290766 -7.2256e-18
0.0183615 -0.000290673 -8.00945e-18
0.0204288 -0.000290647 -1.11487e-17
0.0224961 -0.000290647 -1.46084e-17
0.0245635 -0.000290666 -1.30259e-17
0.0266309 -0.000290717 -4.08673e-18
0.0286986 -0.000290825 4.0438e-18
0.0307669 -0.000290986 8.87766e-18
0.0328364 -0.000291028 8.9573e-18
0.0349072 -0.000289577 6.61409e-18
0.0369743 -0.000282925 6.76029e-18
0.0390259 -0.000270239 6.77441e-18
0.041 -0.000261923 3.43826e-18
0 0 0
0.00181525 -0.000391448 3.43756e-18
0.0038684 -0.000555507 8.93354e-18
0.00594016 -0.00058382 1.42157e-17
0.00801659 -0.000586866 1.4732e-17
0.0100889 -0.000584526 9.00316e-18
0.0121585 -0.000582739 7.49822e-19
0.0142266 -0.000581825 -5.37009e-18
0.0162942 -0.000581453 -8.0501e-18
0.0183615 -0.000581323 -9.5063e-18
0.0204288 -0.000581288 -1.13525e-17
0.0224961 -0.000581288 -1.29437e-17
0.0245635 -0.000581316 -1.00419e-17
0.0266308 -0.000581388 -1.9865e-18
0.0286983 -0.000581543 3.66049e-18
0.030766 -0.000581796 7.68839e-18
0.0328341 -0.000581828 7.99143e-18
0.0349021 -0.000580375 5.84159e-18
0.0369698 -0.00056956 3.93288e-18
0.0390253 -0.000539342 5.17027e-18
0.041 -0.000517597 2.92488e-18
0 0 0
0.00196993 -0.000732809 2.30999e-18
0.00393252 -0.000844428 4.96439e-18
0.00596247 -0.000874789 5.94838e-18
0.00802366 -0.000876454 5.74059e-18
0.0100907 -0.000874679 3.38583e-18
0.0121587 -0.000873141 5.30246e-19
0.0142265 -0.000872377 -5.35753e-19
0.0162941 -0.000872063 -1.44239e-18
0.0183615 -0.000871955 -2.09386e-18
0.0204288 -0.000871925 -3.49769e-18
0.0224961 -0.000871926 -4.71129e-18
0.0245635 -0.000871949 -5.40598e-18
0.0266308 -0.00087201 -2.29238e-18
0.0286982 -0.000872144 -2.6011e-19
0.0307655 -0.000872344 2.97506e-18
0.0328325 -0.000872423 4.332e-18
0.0348974 -0.000870736 3.9734e-18
0.0369558 -0.000863459 2.44657e-18
0.0390095 -0.000808904 2.48068e-18
0.041 -0.000762362 1.28228e-19
0 0 0
0.00197622 0.000721601 -0.000168157
0.00394714 0.000833531 -0.000260893
0.00597614 0.000870686 -0.000289755
0.00802998 0.00087497 -0.000293596
0.0100932 0.000874349 -0.00029282
0.0121596 0.000873101 -0.000291695
0.0142268 0.000872398 -0.000291061
0.0162941 0.000872082 -0.000290782
0.0183615 0.000871965 -0.000290679
0.0204288 0.00087193 -0.000290649
0.0224961 0.000871929 -0.000290649
0.0245634 0.000871952 -0.000290669
0.0266307 0.00087201 -0.00029072
0.028698 0.000872125 -0.000290821