<?xml version="1.0"?>
<VTKFile type="UnstructuredGrid" version="0.1" byte_order="LittleEndian">
<UnstructuredGrid>
<Piece NumberOfPoints="1029" NumberOfCells="720">
<Points>
<DataArray type="Float32" NumberOfComponents="3" format="ascii">
0 0 0
0.005 0 0
0.01 0 0
0.015 0 0
0.02 0 0
0.025 0 0
0.03 0 0
0.035 0 0
0.04 0 0
0.045 0 0
0.05 0 0
0.055 0 0
0.06 0 0
0.065 0 0
0.07 0 0
0.075 0 0
0.08 0 0
0.085 0 0
0.09 0 0
0.095 0 0
0.1 0 0
0 0.005 0
0.005 0.005 0
0.01 0.005 0
0.015 0.005 0
0.02 0.005 0
0.025 0.005 0
0.03 0.005 0
0.035 0.005 0
0.04 0.005 0
0.045 0.005 0
0.05 0.005 0
0.055 0.005 0
0.06 0.005 0
0.065 0.005 0
0.07 0.005 0
0.075 0.005 0
0.08 0.005 0
0.085 0.005 0
0.09 0.005 0
0.095 0.005 0
0.1 0.005 0
0 0.01 0
0.005 0.01 0
0.01 0.01 0
0.015 0.01 0
0.02 0.01 0
0.025 0.01 0
0.03 0.01 0
0.035 0.01 0
0.04 0.01 0
0.045 0.01 0
0.05 0.01 0
0.055 0.01 0
0.06 0.01 0
0.065 0.01 0
0.07 0.01 0
0.075 0.01 0
0.08 0.01 0
0.085 0.01 0
0.09 0.01 0
0.095 0.01 0
0.1 0.01 0
0 0.015 0
0.005 0.015 0
0.01 0.015 0
0.015 0.015 0
0.02 0.015 0
0.025 0.015 0
0.03 0.015 0
0.035 0.015 0
0.04 0.015 0
0.045 0.015 0
0.05 0.015 0
0.055 0.015 0
0.06 0.015 0
0.065 0.015 0
0.07 0.015 0
0.075 0.015 0
0.08 0.015 0
0.085 0.015 0
0.09 0.015 0
0.095 0.015 0
0.1 0.015 0
0 0.02 0
0.005 0.02 0
0.01 0.02 0
0.015 0.02 0
0.02 0.02 0
0.025 0.02 0
0.03 0.02 0
0.035 0.02 0
0.04 0.02 0
0.045 0.02 0
0.05 0.02 0
0.055 0.02 0
0.06 0.02 0
0.065 0.02 0
0.07 0.02 0
0.075 0.02 0
0.08 0.02 0
0.085 0.02 0
0.09 0.02 0
0.095 0.02 0
0.1 0.02 0
0 0.025 0
0.005 0.025 0
0.01 0.025 0
0.015 0.025 0
0.02 0.025 0
0.025 0.025 0
0.03 0.025 0
0.035 0.025 0
0.04 0.025 0
0.045 0.025 0
0.05 0.025 0
0.055 0.025 0
0.06 0.025 0
0.065 0.025 0
0.07 0.025 0
0.075 0.025 0
0.08 0.025 0
0.085 0.025 0
0.09 0.025 0
0.095 0.025 0
0.1 0.025 0
0 0.03 0
0.005 0.03 0
0.01 0.03 0
0.015 0.03 0
0.02 0.03 0
0.025 0.03 0
0.03 0.03 0
0.035 0.03 0
0.04 0.03 0
0.045 0.03 0
0.05 0.03 0
0.055 0.03 0
0.06 0.03 0
0.065 0.03 0
0.07 0.03 0
0.075 0.03 0
0.08 0.03 0
0.085 0.03 0
0.09 0.03 0
0.095 0.03 0
0.1 0.03 0
0 0 0.005
0.005 0 0.005
0.01 0 0.005
0.015 0 0.005
0.02 0 0.005
0.025 0 0.005
0.03 0 0.005
0.035 0 0.005
0.04 0 0.005
0.045 0 0.005
0.05 0 0.005
0.055 0 0.005
0.06 0 0.005
0.065 0 0.005
0.07 0 0.005
0.075 0 0.005
0.08 0 0.005
0.085 0 0.005
0.09 0 0.005
0.095 0 0.005
0.1 0 0.005
0 0.005 0.005
0.005 0.005 0.005
0.01 0.005 0.005
0.015 0.005 0.005
0.02 0.005 0.005
0.025 0.005 0.005
0.03 0.005 0.005
0.035 0.005 0.005
0.04 0.005 0.005
0.045 0.005 0.005
0.05 0.005 0.005
0.055 0.005 0.005
0.06 0.005 0.005
0.065 0.005 0.005
0.07 0.005 0.005
0.075 0.005 0.005
0.08 0.005 0.005
0.085 0.005 0.005
0.09 0.005 0.005
0.095 0.005 0.005
0.1 0.005 0.005
0 0.01 0.005
0.005 0.01 0.005
0.01 0.01 0.005
0.015 0.01 0.005
0.02 0.01 0.005
0.025 0.01 0.005
0.03 0.01 0.005
0.035 0.01 0.005
0.04 0.01 0.005
0.045 0.01 0.005
0.05 0.01 0.005
0.055 0.01 0.005
0.06 0.01 0.005
0.065 0.01 0.005
0.07 0.01 0.005
0.075 0.01 0.005
0.08 0.01 0.005
0.085 0.01 0.005
0.09 0.01 0.005
0.095 0.01 0.005
0.1 0.01 0.005
0 0.015 0.005
0.005 0.015 0.005
0.01 0.015 0.005
0.015 0.015 0.005
0.02 0.015 0.005
0.025 0.015 0.005
0.03 0.015 0.005
0.035 0.015 0.005
0.04 0.015 0.005
0.045 0.015 0.005
0.05 0.015 0.005
0.055 0.015 0.005
0.06 0.015 0.005
0.065 0.015 0.005
0.07 0.015 0.005
0.075 0.015 0.005
0.08 0.015 0.005
0.085 0.015 0.005
0.09 0.015 0.005
0.095 0.015 0.005
0.1 0.015 0.005
0 0.02 0.005
0.005 0.02 0.005
0.01 0.02 0.005
0.015 0.02 0.005
0.02 0.02 0.005
0.025 0.02 0.005
0.03 0.02 0.005
0.035 0.02 0.005
0.04 0.02 0.005
0.045 0.02 0.005
0.05 0.02 0.005
0.055 0.02 0.005
0.06 0.02 0.005
0.065 0.02 0.005
0.07 0.02 0.005
0.075 0.02 0.005
0.08 0.02 0.005
0.085 0.02 0.005
0.09 0.02 0.005
0.095 0.02 0.005
0.1 0.02 0.005
0 0.025 0.005
0.005 0.025 0.005
0.01 0.025 0.005
0.015 0.025 0.005
0.02 0.025 0.005
0.025 0.025 0.005
0.03 0.025 0.005
0.035 0.025 0.005
0.04 0.025 0.005
0.045 0.025 0.005
0.05 0.025 0.005
0.055 0.025 0.005
0.06 0.025 0.005
0.065 0.025 0.005
0.07 0.025 0.005
0.075 0.025 0.005
0.08 0.025 0.005
0.085 0.025 0.005
0.09 0.025 0.005
0.095 0.025 0.005
0.1 0.025 0.005
0 0.03 0.005
0.005 0.03 0.005
0.01 0.03 0.005
0.015 0.03 0.005
0.02 0.03 0.005
0.025 0.03 0.005
0.03 0.03 0.005
0.035 0.03 0.005
0.04 0.03 0.005
0.045 0.03 0.005
0.05 0.03 0.005
0.055 0.03 0.005
0.06 0.03 0.005
0.065 0.03 0.005
0.07 0.03 0.005
0.075 0.03 0.005
0.08 0.03 0.005
0.085 0.03 0.005
0.09 0.03 0.005
0.095 0.03 0.005
0.1 0.03 0.005
0 0 0.01
0.005 0 0.01
0.01 0 0.01
0.015 0 0.01
0.02 0 0.01
0.025 0 0.01
0.03 0 0.01
0.035 0 0.01
0.04 0 0.01
0.045 0 0.01
0.05 0 0.01
0.055 0 0.01
0.06 0 0.01
0.065 0 0.01
0.07 0 0.01
0.075 0 0.01
0.08 0 0.01
0.085 0 0.01
0.09 0 0.01
0.095 0 0.01
0.1 0 0.01
0 0.005 0.01
0.005 0.005 0.01
0.01 0.005 0.01
0.015 0.005 0.01
0.02 0.005 0.01
0.025 0.005 0.01
0.03 0.005 0.01
0.035 0.005 0.01
0.04 0.005 0.01
0.045 0.005 0.01
0.05 0.005 0.01
0.055 0.005 0.01
0.06 0.005 0.01
0.065 0.005 0.01
0.07 0.005 0.01
0.075 0.005 0.01
0.08 0.005 0.01
0.085 0.005 0.01
0.09 0.005 0.01
0.095 0.005 0.01
0.1 0.005 0.01
0 0.01 0.01
0.005 0.01 0.01
0.01 0.01 0.01
0.015 0.01 0.01
0.02 0.01 0.01
0.025 0.01 0.01
0.03 0.01 0.01
0.035 0.01 0.01
0.04 0.01 0.01
0.045 0.01 0.01
0.05 0.01 0.01
0.055 0.01 0.01
0.06 0.01 0.01
0.065 0.01 0.01
0.07 0.01 0.01
0.075 0.01 0.01
0.08 0.01 0.01
0.085 0.01 0.01
0.09 0.01 0.01
0.095 0.01 0.01
0.1 0.01 0.01
0 0.015 0.01
0.005 0.015 0.01
0.01 0.015 0.01
0.015 0.015 0.01
0.02 0.015 0.01
0.025 0.015 0.01
0.03 0.015 0.01
0.035 0.015 0.01
0.04 0.015 0.01
0.045 0.015 0.01
0.05 0.015 0.01
0.055 0.015 0.01
0.06 0.015 0.01
0.065 0.015 0.01
0.07 0.015 0.01
0.075 0.015 0.01
0.08 0.015 0.01
0.085 0.015 0.01
0.09 0.015 0.01
0.095 0.015 0.01
0.1 0.015 0.01
0 0.02 0.01
0.005 0.02 0.01
0.01 0.02 0.01
0.015 0.02 0.01
0.02 0.02 0.01
0.025 0.02 0.01
0.03 0.02 0.01
0.035 0.02 0.01
0.04 0.02 0.01
0.045 0.02 0.01
0.05 0.02 0.01
0.055 0.02 0.01
0.06 0.02 0.01
0.065 0.02 0.01
0.07 0.02 0.01
0.075 0.02 0.01
0.08 0.02 0.01
0.085 0.02 0.01
0.09 0.02 0.01
0.095 0.02 0.01
0.1 0.02 0.01
0 0.025 0.01
0.005 0.025 0.01
0.01 0.025 0.01
0.015 0.025 0.01
0.02 0.025 0.01
0.025 0.025 0.01
0.03 0.025 0.01
0.035 0.025 0.01
0.04 0.025 0.01
0.045 0.025 0.01
0.05 0.025 0.01
0.055 0.025 0.01
0.06 0.025 0.01
0.065 0.025 0.01
0.07 0.025 0.01
0.075 0.025 0.01
0.08 0.025 0.01
0.085 0.025 0.01
0.09 0.025 0.01
0.095 0.025 0.01
0.1 0.025 0.01
0 0.03 0.01
0.005 0.03 0.01
0.01 0.03 0.01
0.015 0.03 0.01
0.02 0.03 0.01
0.025 0.03 0.01
0.03 0.03 0.01
0.035 0.03 0.01
0.04 0.03 0.01
0.045 0.03 0.01
0.05 0.03 0.01
0.055 0.03 0.01
0.06 0.03 0.01
0.065 0.03 0.01
0.07 0.03 0.01
0.075 0.03 0.01
0.08 0.03 0.01
0.085 0.03 0.01
0.09 0.03 0.01
0.095 0.03 0.01
0.1 0.03 0.01
0 0 0.015
0.005 0 0.015
0.01 0 0.015
0.015 0 0.015
0.02 0 0.015
0.025 0 0.015
0.03 0 0.015
0.035 0 0.015
0.04 0 0.015
0.045 0 0.015
0.05 0 0.015
0.055 0 0.015
0.06 0 0.015
0.065 0 0.015
0.07 0 0.015
0.075 0 0.015
0.08 0 0.015
0.085 0 0.015
0.09 0 0.015
0.095 0 0.015
0.1 0 0.015
0 0.005 0.015
0.005 0.005 0.015
0.01 0.005 0.015
0.015 0.005 0.015
0.02 0.005 0.015
0.025 0.005 0.015
0.03 0.005 0.015
0.035 0.005 0.015
0.04 0.005 0.015
0.045 0.005 0.015
0.05 0.005 0.015
0.055 0.005 0.015
0.06 0.005 0.015
0.065 0.005 0.015
0.07 0.005 0.015
0.075 0.005 0.015
0.08 0.005 0.015
0.085 0.005 0.015
0.09 0.005 0.015
0.095 0.005 0.015
0.1 0.005 0.015
0 0.01 0.015
0.005 0.01 0.015
0.01 0.01 0.015
0.015 0.01 0.015
0.02 0.01 0.015
0.025 0.01 0.015
0.03 0.01 0.015
0.035 0.01 0.015
0.04 0.01 0.015
0.045 0.01 0.015
0.05 0.01 0.015
0.055 0.01 0.015
0.06 0.01 0.015
0.065 0.01 0.015
0.07 0.01 0.015
0.075 0.01 0.015
0.08 0.01 0.015
0.085 0.01 0.015
0.09 0.01 0.015
0.095 0.01 0.015
0.1 0.01 0.015
0 0.015 0.015
0.005 0.015 0.015
0.01 0.015 0.015
0.015 0.015 0.015
0.02 0.015 0.015
0.025 0.015 0.015
0.03 0.015 0.015
0.035 0.015 0.015
0.04 0.015 0.015
0.045 0.015 0.015
0.05 0.015 0.015
0.055 0.015 0.015
0.06 0.015 0.015
0.065 0.015 0.015
0.07 0.015 0.015
0.075 0.015 0.015
0.08 0.015 0.015
0.085 0.015 0.015
0.09 0.015 0.015
0.095 0.015 0.015
0.1 0.015 0.015
0 0.02 0.015
0.005 0.02 0.015
0.01 0.02 0.015
0.015 0.02 0.015
0.02 0.02 0.015
0.025 0.02 0.015
0.03 0.02 0.015
0.035 0.02 0.015
0.04 0.02 0.015
0.045 0.02 0.015
0.05 0.02 0.015
0.055 0.02 0.015
0.06 0.02 0.015
0.065 0.02 0.015
0.07 0.02 0.015
0.075 0.02 0.015
0.08 0.02 0.015
0.085 0.02 0.015
0.09 0.02 0.015
0.095 0.02 0.015
0.1 0.02 0.015
0 0.025 0.015
0.005 0.025 0.015
0.01 0.025 0.015
0.015 0.025 0.015
0.02 0.025 0.015
0.025 0.025 0.015
0.03 0.025 0.015
0.035 0.025 0.015
0.04 0.025 0.015
0.045 0.025 0.015
0.05 0.025 0.015
0.055 0.025 0.015
0.06 0.025 0.015
0.065 0.025 0.015
0.07 0.025 0.015
0.075 0.025 0.015
0.08 0.025 0.015
0.085 0.025 0.015
0.09 0.025 0.015
0.095 0.025 0.015
0.1 0.025 0.015
0 0.03 0.015
0.005 0.03 0.015
0.01 0.03 0.015
0.015 0.03 0.015
0.02 0.03 0.015
0.025 0.03 0.015
0.03 0.03 0.015
0.035 0.03 0.015
0.04 0.03 0.015
0.045 0.03 0.015
0.05 0.03 0.015
0.055 0.03 0.015
0.06 0.03 0.015
0.065 0.03 0.015
0.07 0.03 0.015
0.075 0.03 0.015
0.08 0.03 0.015
0.085 0.03 0.015
0.09 0.03 0.015
0.095 0.03 0.015
0.1 0.03 0.015
0 0 0.02
0.005 0 0.02
0.01 0 0.02
0.015 0 0.02
0.02 0 0.02
0.025 0 0.02
0.03 0 0.02
0.035 0 0.02
0.04 0 0.02
0.045 0 0.02
0.05 0 0.02
0.055 0 0.02
0.06 0 0.02
0.065 0 0.02
0.07 0 0.02
0.075 0 0.02
0.08 0 0.02
0.085 0 0.02
0.09 0 0.02
0.095 0 0.02
0.1 0 0.02
0 0.005 0.02
0.005 0.005 0.02
0.01 0.005 0.02
0.015 0.005 0.02
0.02 0.005 0.02
0.025 0.005 0.02
0.03 0.005 0.02
0.035 0.005 0.02
0.04 0.005 0.02
0.045 0.005 0.02
0.05 0.005 0.02
0.055 0.005 0.02
0.06 0.005 0.02
0.065 0.005 0.02
0.07 0.005 0.02
0.075 0.005 0.02
0.08 0.005 0.02
0.085 0.005 0.02
0.09 0.005 0.02
0.095 0.005 0.02
0.1 0.005 0.02
0 0.01 0.02
0.005 0.01 0.02
0.01 0.01 0.02
0.015 0.01 0.02
0.02 0.01 0.02
0.025 0.01 0.02
0.03 0.01 0.02
0.035 0.01 0.02
0.04 0.01 0.02
0.045 0.01 0.02
0.05 0.01 0.02
0.055 0.01 0.02
0.06 0.01 0.02
0.065 0.01 0.02
0.07 0.01 0.02
0.075 0.01 0.02
0.08 0.01 0.02
0.085 0.01 0.02
0.09 0.01 0.02
0.095 0.01 0.02
[...]
<PointData Vectors="Displacement">
<DataArray type="Float32" Name="Displacement" NumberOfComponents="3" format="ascii">
0 0 0
0.00228817 0.000722585 0.000722585
0.00435491 0.000858258 0.000858258
0.00646413 0.000919125 0.000919125
0.0086315 0.000932068 0.000932068
0.0108294 0.000934449 0.000934449
0.013041 0.000933965 0.000933965
0.0152577 0.000933405 0.000933405
0.017476 0.000933083 0.000933083
0.0196946 0.000932947 0.000932947
0.0219132 0.0009329 0.0009329
0.0241319 0.000932893 0.000932893
0.0263505 0.000932913 0.000932913
0.028569 0.000932958 0.000932958
0.0307872 0.000933018 0.000933018
0.0330045 0.000932948 0.000932948
0.0352197 0.000932287 0.000932287
0.0374305 0.000928856 0.000928856
0.0396354 0.000920205 0.000920205
0.0418437 0.000877796 0.000877796
0.044 0.000844365 0.000844365
0 0 0
0.00213478 0.00039708 0.00073696
0.00428196 0.000573402 0.000871712
0.00643455 0.000615463 0.000922254
0.00862128 0.000624847 0.000933199
0.0108264 0.00062454 0.000934614
0.0130404 0.000623306 0.000933962
0.0152577 0.000622491 0.000933375
0.017476 0.000622119 0.000933065
0.0196946 0.000621977 0.000932938
0.0219132 0.000621934 0.000932896
0.0241319 0.000621931 0.000932891
0.0263505 0.000621955 0.00093291
0.028569 0.000622014 0.000932956
0.0307873 0.000622121 0.000933024
0.0330051 0.000622218 0.000933008
0.0352215 0.000621837 0.000932488
0.0374353 0.000619586 0.000929635
0.0396471 0.000609426 0.000922146
0.0418562 0.000584788 0.000876369
0.044 0.000568388 0.000838605
0 0 0
0.00210797 0.000181974 0.000779651
0.00422336 0.000280493 0.000894334
0.0064017 0.000310215 0.000932071
0.00860655 0.000313947 0.000935954
0.0108211 0.000313105 0.000935239
0.0130388 0.000311974 0.000933993
0.0152573 0.000311356 0.000933319
0.017476 0.00031109 0.000933024
0.0196946 0.000310995 0.000932918
0.0219133 0.000310968 0.000932887
0.0241319 0.000310967 0.000932886
0.0263505 0.000310984 0.000932904
0.0285691 0.000311028 0.000932953
0.0307877 0.000311117 0.000933054
0.033006 0.000311226 0.000933167
0.0352238 0.000311136 0.000933085
0.0374398 0.000309599 0.000931151
0.0396507 0.000303483 0.000924657
0.0418568 0.000292487 0.000873998
0.044 0.000285851 0.000830545
0 0 0
0.00210125 5.28389e-20 0.000792349
0.00420773 2.88219e-20 0.000906329
0.00638739 2.74086e-19 0.000936437
0.0086001 5.89912e-19 0.000937496
0.0108186 4.65847e-20 0.000935565
0.013038 5.99902e-19 0.000934027
0.0152571 6.73987e-19 0.000933296
0.0174759 5.41481e-19 0.000933005
0.0196946 5.1488e-19 0.000932908
0.0219133 1.3311e-18 0.000932882
0.0241319 1.26593e-18 0.000932883
0.0263505 6.34872e-19 0.000932902
0.0285691 1.3083e-18 0.000932954
0.0307878 1.38001e-18 0.000933071
0.0330065 7.59951e-19 0.000933256
0.0352248 1.25896e-18 0.000933362
0.0374412 1.0303e-18 0.000931882
0.0396513 8.45921e-19 0.000925313
0.0418564 2.47052e-19 0.000872916
0.044 1.08293e-18 0.000827907
0 0 0
0.00210797 -0.000181974 0.000779651
0.00422336 -0.000280493 0.000894334
0.0064017 -0.000310215 0.000932071
0.00860655 -0.000313947 0.000935954
0.0108211 -0.000313105 0.000935239
0.0130388 -0.000311974 0.000933993
0.0152573 -0.000311356 0.000933319
0.017476 -0.00031109 0.000933024
0.0196946 -0.000310995 0.000932918
0.0219133 -0.000310968 0.000932887
0.0241319 -0.000310967 0.000932886
0.0263505 -0.000310984 0.000932904
0.0285691 -0.000311028 0.000932953
0.0307877 -0.000311117 0.000933054
0.033006 -0.000311226 0.000933167
0.0352238 -0.000311136 0.000933085
0.0374398 -0.000309599 0.000931151
0.0396507 -0.000303483 0.000924657
0.0418568 -0.000292487 0.000873998
0.044 -0.000285851 0.000830545
0 0 0
0.00213478 -0.00039708 0.00073696
0.00428196 -0.000573402 0.000871712
0.00643455 -0.000615463 0.000922254
0.00862128 -0.000624847 0.000933199
0.0108264 -0.00062454 0.000934614
0.0130404 -0.000623306 0.000933962
0.0152577 -0.000622491 0.000933375
0.017476 -0.000622119 0.000933065
0.0196946 -0.000621977 0.000932938
0.0219132 -0.000621934 0.000932896
0.0241319 -0.000621931 0.000932891
0.0263505 -0.000621955 0.00093291
0.028569 -0.000622014 0.000932956
0.0307873 -0.000622121 0.000933024
0.0330051 -0.000622218 0.000933008
0.0352215 -0.000621837 0.000932488
0.0374353 -0.000619586 0.000929635
0.0396471 -0.000609426 0.000922146
0.0418562 -0.000584788 0.000876369
0.044 -0.000568388 0.000838605
0 0 0
0.00228817 -0.000722585 0.000722585
0.00435491 -0.000858258 0.000858258
0.00646413 -0.000919125 0.000919125
0.0086315 -0.000932068 0.000932068
0.0108294 -0.000934449 0.000934449
0.013041 -0.000933965 0.000933965
0.0152577 -0.000933405 0.000933405
0.017476 -0.000933083 0.000933083
0.0196946 -0.000932947 0.000932947
0.0219132 -0.0009329 0.0009329
0.0241319 -0.000932893 0.000932893
0.0263505 -0.000932913 0.000932913
0.028569 -0.000932958 0.000932958
0.0307872 -0.000933018 0.000933018
0.0330045 -0.000932948 0.000932948
0.0352197 -0.000932287 0.000932287
0.0374305 -0.000928856 0.000928856
0.0396354 -0.000920205 0.000920205
0.0418437 -0.000877796 0.000877796
0.044 -0.000844365 0.000844365
0 0 0
0.00213478 0.00073696 0.00039708
0.00428196 0.000871712 0.000573402
0.00643455 0.000922254 0.000615463
0.00862128 0.000933199 0.000624847
0.0108264 0.000934614 0.00062454
0.0130404 0.000933962 0.000623306
0.0152577 0.000933375 0.000622491
0.017476 0.000933065 0.000622119
0.0196946 0.000932938 0.000621977
0.0219132 0.000932896 0.000621934
0.0241319 0.000932891 0.000621931
0.0263505 0.00093291 0.000621955
0.028569 0.000932956 0.000622014
0.0307873 0.000933024 0.000622121
0.0330051 0.000933008 0.000622218
0.0352215 0.000932488 0.000621837
0.0374353 0.000929635 0.000619586
0.0396471 0.000922146 0.000609426
0.0418562 0.000876369 0.000584788
0.044 0.000838605 0.000568388
0 0 0
0.00197433 0.000395378 0.000395378
0.00421264 0.000573594 0.000573594
0.00640819 0.000615058 0.000615058
0.00861216 0.000624553 0.000624553
0.0108239 0.000624438 0.000624438
0.0130399 0.000623268 0.000623268
0.0152577 0.000622482 0.000622482
0.0174761 0.000622118 0.000622118
0.0196946 0.000621978 0.000621978
0.0219133 0.000621935 0.000621935
0.0241319 0.000621931 0.000621931
0.0263505 0.000621954 0.000621954
0.028569 0.000622012 0.000622012
0.0307875 0.000622114 0.000622114
0.0330056 0.000622202 0.000622202
0.0352232 0.000621808 0.000621808
0.0374398 0.000619648 0.000619648
0.0396594 0.000609581 0.000609581
0.0418699 0.000584463 0.000584463
0.044 0.000567157 0.000567157
0 0 0
0.00194711 0.000175757 0.000416116
0.00415649 0.000276193 0.000589302
0.00637803 0.000308218 0.000621488
0.00859893 0.000313186 0.000626491
0.0108191 0.000312884 0.000624833
0.0130385 0.000311931 0.000623284
0.0152573 0.000311356 0.000622441
0.017476 0.000311096 0.000622089
0.0196947 0.000310999 0.000621964
0.0219133 0.00031097 0.000621929
0.0241319 0.000310968 0.000621928
0.0263505 0.000310984 0.00062195
0.0285691 0.000311026 0.00062201
0.0307878 0.000311105 0.000622133
0.0330065 0.00031118 0.000622314
0.0352253 0.000311015 0.000622213
0.0374442 0.000309358 0.000620694
0.0396636 0.000303259 0.00061074
0.0418712 0.000292659 0.000582785
0.044 0.000286109 0.000562624
0 0 0
0.00193935 -1.96463e-21 0.000424883
0.00414195 4.20376e-20 0.000597137
0.006365 2.57993e-19 0.000625038
0.0085931 4.00985e-19 0.000627627
0.0108168 1.95597e-19 0.000625101
0.0130377 7.42765e-19 0.000623309
0.0152571 4.99051e-19 0.000622425
0.017476 6.8447e-19 0.000622075
0.0196947 2.82002e-19 0.000621957
0.0219133 1.41125e-18 0.000621925
0.0241319 1.10798e-18 0.000621926
0.0263505 9.88161e-19 0.000621948
0.0285692 1.22039e-18 0.000622011
0.0307879 1.49147e-18 0.000622147
0.0330069 1.14665e-18 0.000622382
0.0352262 7.73033e-19 0.000622439
0.0374455 1.01518e-18 0.000621191
0.0396644 9.32567e-19 0.000611104
0.0418712 3.64577e-19 0.00058201
0.044 9.26303e-19 0.000560878
0 0 0
0.00194711 -0.000175757 0.000416116
0.00415649 -0.000276193 0.000589302
0.00637803 -0.000308218 0.000621488
0.00859893 -0.000313186 0.000626491
0.0108191 -0.000312884 0.000624833
0.0130385 -0.000311931 0.000623284
0.0152573 -0.000311356 0.000622441
0.017476 -0.000311096 0.000622089
0.0196947 -0.000310999 0.000621964
0.0219133 -0.00031097 0.000621929
0.0241319 -0.000310968 0.000621928
0.0263505 -0.000310984 0.00062195
0.0285691 -0.000311026 0.00062201
0.0307878 -0.000311105 0.000622133
0.0330065 -0.00031118 0.000622314
0.0352253 -0.000311015 0.000622213
0.0374442 -0.000309358 0.000620694
0.0396636 -0.000303259 0.00061074
0.0418712 -0.000292659 0.000582785
0.044 -0.000286109 0.000562624
0 0 0
0.00197433 -0.000395378 0.000395378
0.00421264 -0.000573594 0.000573594
0.00640819 -0.000615058 0.000615058
0.00861216 -0.000624553 0.000624553
0.0108239 -0.000624438 0.000624438
0.0130399 -0.000623268 0.000623268
0.0152577 -0.000622482 0.000622482
0.0174761 -0.000622118 0.000622118
0.0196946 -0.000621978 0.000621978
0.0219133 -0.000621935 0.000621935
0.0241319 -0.000621931 0.000621931
0.0263505 -0.000621954 0.000621954
0.028569 -0.000622012 0.000622012
0.0307875 -0.000622114 0.000622114
0.0330056 -0.000622202 0.000622202
0.0352232 -0.000621808 0.000621808
0.0374398 -0.000619648 0.000619648
0.0396594 -0.000609581 0.000609581
0.0418699 -0.000584463 0.000584463
0.044 -0.000567157 0.000567157
0 0 0
0.00213478 -0.00073696 0.00039708
0.00428196 -0.000871712 0.000573402
0.00643455 -0.000922254 0.000615463
0.00862128 -0.000933199 0.000624847
0.0108264 -0.000934614 0.00062454
0.0130404 -0.000933962 0.000623306
0.0152577 -0.000933375 0.000622491
0.017476 -0.000933065 0.000622119
0.0196946 -0.000932938 0.000621977
0.0219132 -0.000932896 0.000621934
0.0241319 -0.000932891 0.000621931
0.0263505 -0.00093291 0.000621955
0.028569 -0.000932956 0.000622014
0.0307873 -0.000933024 0.000622121
0.0330051 -0.000933008 0.000622218
0.0352215 -0.000932488 0.000621837
0.0374353 -0.000929635 0.000619586
0.0396471 -0.000922146 0.000609426
0.0418562 -0.000876369 0.000584788
0.044 -0.000838605 0.000568388
0 0 0
0.00210797 0.000779651 0.000181974
0.00422336 0.000894334 0.000280493
0.0064017 0.000932071 0.000310215
0.00860655 0.000935954 0.000313947
0.0108211 0.000935239 0.000313105
0.0130388 0.000933993 0.000311974
0.0152573 0.000933319 0.000311356
0.017476 0.000933024 0.00031109
0.0196946 0.000932918 0.000310995
0.0219133 0.000932887 0.000310968
0.0241319 0.000932886 0.000310967
0.0263505 0.000932904 0.000310984
0.0285691 0.000932953 0.000311028
0.0307877 0.000933054 0.000311117
0.033006 0.000933167 0.000311226
0.0352238 0.000933085 0.000311136
0.0374398 0.000931151 0.000309599
0.0396507 0.000924657 0.000303483
0.0418568 0.000873998 0.000292487
0.044 0.000830545 0.000285851
0 0 0
0.00194711 0.000416116 0.000175757
0.00415649 0.000589302 0.000276193
0.00637803 0.000621488 0.000308218
0.00859893 0.000626491 0.000313186
0.0108191 0.000624833 0.000312884
0.0130385 0.000623284 0.000311931
0.0152573 0.000622441 0.000311356
0.017476 0.000622089 0.000311096
0.0196947 0.000621964 0.000310999
0.0219133 0.000621929 0.00031097
0.0241319 0.000621928 0.000310968
0.0263505 0.00062195 0.000310984
0.0285691 0.00062201 0.000311026
0.0307878 0.000622133 0.000311105
0.0330065 0.000622314 0.00031118
0.0352253 0.000622213 0.000311015
0.0374442 0.000620694 0.000309358
0.0396636 0.00061074 0.000303259
0.0418712 0.000582785 0.000292659
0.044 0.000562624 0.000286109
0 0 0
0.00192214 0.000184381 0.000184381
0.00409764 0.000282944 0.000282944
0.00634778 0.000311311 0.000311311
0.00858612 0.000314088 0.000314088
0.0108147 0.00031306 0.00031306
0.0130371 0.000311931 0.000311931
0.015257 0.000311335 0.000311335
0.017476 0.000311082 0.000311082
0.0196947 0.000310992 0.000310992
0.0219133 0.000310967 0.000310967
0.0241319 0.000310966 0.000310966
0.0263505 0.000310982 0.000310982
0.0285692 0.000311025 0.000311025
0.030788 0.000311114 0.000311114
0.0330073 0.000311234 0.000311234
0.0352274 0.000311215 0.000311215
0.0374488 0.000309811 0.000309811
0.0396678 0.000303647 0.000303647
0.0418719 0.000291904 0.000291904
0.044 0.000284233 0.000284233
0 0 0
0.00191507 3.1778e-20 0.000188225
0.00408263 -6.46977e-20 0.000286571
0.00633434 2.47216e-19 0.000313079
0.00858042 2.33253e-19 0.000314678
0.0108124 2.68105e-19 0.000313194
0.0130364 6.68601e-19 0.000311943
0.0152568 4.53607e-19 0.000311326
0.017476 4.18765e-19 0.000311075
0.0196947 4.55991e-19 0.000310989
0.0219133 1.23439e-18 0.000310965
0.0241319 1.43985e-18 0.000310965
0.0263505 1.00088e-18 0.000310981
0.0285692 1.316e-18 0.000311025
0.0307882 1.49732e-18 0.000311121
0.0330077 1.23876e-18 0.000311269
0.0352284 1.04317e-18 0.00031133
0.0374503 1.30381e-18 0.000310039
0.0396686 1.13831e-18 0.000303783
0.0418717 7.55211e-19 0.000291532
0.044 6.68354e-19 0.000283426
0 0 0
0.00192214 -0.000184381 0.000184381
0.00409764 -0.000282944 0.000282944
0.00634778 -0.000311311 0.000311311
0.00858612 -0.000314088 0.000314088
0.0108147 -0.00031306 0.00031306
0.0130371 -0.000311931 0.000311931
0.015257 -0.000311335 0.000311335
0.017476 -0.000311082 0.000311082
0.0196947 -0.000310992 0.000310992
0.0219133 -0.000310967 0.000310967
0.0241319 -0.000310966 0.000310966
0.0263505 -0.000310982 0.000310982
0.0285692 -0.000311025 0.000311025
0.030788 -0.000311114 0.000311114
0.0330073 -0.000311234 0.000311234
0.0352274 -0.000311215 0.000311215
0.0374488 -0.000309811 0.000309811
0.0396678 -0.000303647 0.000303647
0.0418719 -0.000291904 0.000291904
0.044 -0.000284233 0.000284233
0 0 0
0.00194711 -0.000416116 0.000175757
0.00415649 -0.000589302 0.000276193
0.00637803 -0.000621488 0.000308218
0.00859893 -0.000626491 0.000313186
0.0108191 -0.000624833 0.000312884
0.0130385 -0.000623284 0.000311931
0.0152573 -0.000622441 0.000311356
0.017476 -0.000622089 0.000311096
0.0196947 -0.000621964 0.000310999
0.0219133 -0.000621929 0.00031097
0.0241319 -0.000621928 0.000310968
0.0263505 -0.00062195 0.000310984
0.0285691 -0.00062201 0.000311026
0.0307878 -0.000622133 0.000311105
0.0330065 -0.000622314 0.00031118
0.0352253 -0.000622213 0.000311015
0.0374442 -0.000620694 0.000309358
0.0396636 -0.00061074 0.000303259
0.0418712 -0.000582785 0.000292659
0.044 -0.000562624 0.000286109
0 0 0
0.00210797 -0.000779651 0.000181974
0.00422336 -0.000894334 0.000280493
0.0064017 -0.000932071 0.000310215
0.00860655 -0.000935954 0.000313947
0.0108211 -0.000935239 0.000313105
0.0130388 -0.000933993 0.000311974
0.0152573 -0.000933319 0.000311356
0.017476 -0.000933024 0.00031109
0.0196946 -0.000932918 0.000310995
0.0219133 -0.000932887 0.000310968
0.0241319 -0.000932886 0.000310967
0.0263505 -0.000932904 0.000310984
0.0285691 -0.000932953 0.000311028
0.0307877 -0.000933054 0.000311117
0.033006 -0.000933167 0.000311226
0.0352238 -0.000933085 0.000311136
0.0374398 -0.000931151 0.000309599
0.0396507 -0.000924657 0.000303483
0.0418568 -0.000873998 0.000292487
0.044 -0.000830545 0.000285851
0 0 0
0.00210125 0.000792349 1.11996e-19
0.00420773 0.000906329 3.0381e-19
0.00638739 0.000936437 3.63675e-19
0.0086001 0.000937496 -3.24678e-20
0.0108186 0.000935565 2.16534e-19
0.013038 0.000934027 3.31606e-19
0.0152571 0.000933296 2.47729e-19
0.0174759 0.000933005 4.49761e-19
0.0196946 0.000932908 -5.25018e-20
0.0219133 0.000932882 9.60691e-19
0.0241319 0.000932883 7.79955e-19
0.0263505 0.000932902 6.18285e-19
0.0285691 0.000932954 2.32598e-18
0.0307878 0.000933071 9.91062e-20
0.0330065 0.000933256 8.89946e-19
0.0352248 0.000933362 1.40418e-18
0.0374412 0.000931882 1.49103e-18
0.0396513 0.000925313 1.62844e-18
0.0418564 0.000872916 -1.0973e-19
0.044 0.000827907 1.82683e-18
0 0 0
0.00193935 0.000424883 2.82421e-20
0.00414195 0.000597137 2.05669e-19
0.006365 0.000625038 1.93262e-19
0.0085931 0.000627627 3.22878e-19
0.0108168 0.000625101 1.75395e-19
0.0130377 0.000623309 3.17289e-19
0.0152571 0.000622425 3.44209e-19
0.017476 0.000622075 4.6769e-19
0.0196947 0.000621957 4.41718e-19
0.0219133 0.000621925 8.7896e-19
0.0241319 0.000621926 9.13763e-19
0.0263505 0.000621948 5.46548e-19
0.0285692 0.000622011 1.9153e-18
0.0307879 0.000622147 6.31597e-19
0.0330069 0.000622382 9.11361e-19
0.0352262 0.000622439 1.76421e-18
0.0374455 0.000621191 1.82968e-18
0.0396644 0.000611104 1.09504e-18
0.0418712 0.00058201 7.51394e-19
0.044 0.000560878 5.50042e-19
0 0 0
0.00191507 0.000188225 1.61429e-19
0.00408263 0.000286571 1.36895e-19
0.00633434 0.000313079 3.0549e-19
0.00858042 0.000314678 4.69973e-19
0.0108124 0.000313194 3.11134e-19
0.0130364 0.000311943 1.4178e-19
0.0152568 0.000311326 6.30875e-19
0.017476 0.000311075 5.13926e-19
0.0196947 0.000310989 4.89926e-19
0.0219133 0.000310965 8.18557e-19
0.0241319 0.000310965 9.52881e-19
0.0263505 0.000310981 3.26418e-19
0.0285692 0.000311025 1.82519e-18
0.0307882 0.000311121 5.07846e-19
0.0330077 0.000311269 8.50318e-19
0.0352284 0.00031133 1.81767e-18
0.0374503 0.000310039 1.68019e-18
0.0396686 0.000303783 5.55397e-19
0.0418717 0.000291532 1.06668e-18
0.044 0.000283426 -5.08226e-20
0 0 0
0.0019081 -1.8328e-19 1.70017e-19
0.0040674 -1.32158e-19 2.2789e-19
0.00632067 5.83505e-20 2.44444e-19
0.0085747 3.75391e-19 3.72488e-19
0.0108103 1.37572e-19 2.3893e-19
0.0130357 3.27722e-19 2.02573e-19
0.0152567 6.31068e-19 5.07821e-19
0.0174759 5.65192e-19 3.48565e-19
0.0196947 2.67176e-19 3.13243e-19
0.0219133 1.27444e-18 9.39654e-19
0.0241319 1.18658e-18 4.71324e-19
0.0263505 9.5634e-19 2.85484e-19
0.0285693 1.34622e-18 1.86576e-18
0.0307883 1.63722e-18 1.01786e-19
0.0330081 1.29385e-18 4.99697e-19
0.0352294 8.57081e-19 1.79053e-18
0.0374517 1.44938e-18 1.18878e-18
0.0396694 1.10199e-18 1.00205e-18
0.0418714 9.88443e-19 2.92415e-19
0.044 1.69434e-18 9.6748e-20
0 0 0
0.00191507 -0.000188225 8.56894e-20
0.00408263 -0.000286571 1.97711e-19
0.00633434 -0.000313079 2.20958e-19
0.00858042 -0.000314678 3.24448e-19
0.0108124 -0.000313194 2.06206e-19
0.0130364 -0.000311943 1.94003e-19
0.0152568 -0.000311326 4.91939e-19
0.017476 -0.000311075 4.76741e-19
0.0196947 -0.000310989 4.56863e-19
0.0219133 -0.000310965 7.80397e-19
0.0241319 -0.000310965 4.85754e-19
0.0263505 -0.000310981 2.50368e-19
0.0285692 -0.000311025 1.07841e-18
0.0307882 -0.000311121 2.88196e-19
0.0330077 -0.000311269 5.61371e-19
0.0352284 -0.00031133 1.55656e-18
0.0374503 -0.000310039 1.20173e-18
0.0396686 -0.000303783 8.3436e-19
0.0418717 -0.000291532 -3.94489e-19
0.044 -0.000283426 -8.4359e-20
0 0 0
0.00193935 -0.000424883 1.73504e-19
0.00414195 -0.000597137 1.41362e-19
0.006365 -0.000625038 1.14894e-19
0.0085931 -0.000627627 3.56576e-20
0.0108168 -0.000625101 -5.59165e-20
0.0130377 -0.000623309 -5.93182e-20
0.0152571 -0.000622425 2.57045e-19
0.017476 -0.000622075 4.43689e-19
0.0196947 -0.000621957 2.40813e-19
0.0219133 -0.000621925 5.50286e-19
0.0241319 -0.000621926 4.22886e-19
0.0263505 -0.000621948 8.2359e-20
0.0285692 -0.000622011 1.13386e-18
0.0307879 -0.000622147 -3.20744e-19
0.0330069 -0.000622382 4.57638e-19
0.0352262 -0.000622439 1.44766e-18
0.0374455 -0.000621191 6.08264e-19
0.0396644 -0.000611104 6.60585e-19
0.0418712 -0.00058201 -7.8341e-19
0.044 -0.000560878 -9.06008e-19
0 0 0
0.00210125 -0.000792349 5.9393e-21
0.00420773 -0.000906329 1.89868e-19
0.00638739 -0.000936437 7.87593e-20
0.0086001 -0.000937496 2.37488e-19
0.0108186 -0.000935565 -3.90205e-20
0.013038 -0.000934027 -3.69947e-19
0.0152571 -0.000933296 5.92796e-19
0.0174759 -0.000933005 5.09962e-19
0.0196946 -0.000932908 7.76116e-19
0.0219133 -0.000932882 5.53851e-19
0.0241319 -0.000932883 2.59676e-19
0.0263505 -0.000932902 7.42638e-21
0.0285691 -0.000932954 6.63027e-19
0.0307878 -0.000933071 -8.90831e-20
0.0330065 -0.000933256 3.09641e-19
0.0352248 -0.000933362 1.771e-18
0.0374412 -0.000931882 6.03938e-19
0.0396513 -0.000925313 -7.81732e-20
0.0418564 -0.000872916 -9.1944e-20
0.044 -0.000827907 -1.68459e-18
0 0 0
0.00210797 0.000779651 -0.000181974
0.00422336 0.000894334 -0.000280493
0.0064017 0.000932071 -0.000310215
0.00860655 0.000935954 -0.000313947
0.0108211 0.000935239 -0.000313105
0.0130388 0.000933993 -0.000311974
0.0152573 0.000933319 -0.000311356
0.017476 0.000933024 -0.00031109
0.0196946 0.000932918 -0.000310995
0.0219133 0.000932887 -0.000310968
0.0241319 0.000932886 -0.000310967
0.0263505 0.000932904 -0.000310984
0.0285691 0.000932953 -0.000311028
0.0307877 0.000933054 -0.000311117
0.033006 0.000933167 -0.000311226