<?xml version="1.0"?>
<VTKFile type="UnstructuredGrid" version="0.1" byte_order="LittleEndian">
<UnstructuredGrid>
<Piece NumberOfPoints="1029" NumberOfCells="720">
<Points>
<DataArray type="Float32" NumberOfComponents="3" format="ascii">
0 0 0
0.005 0 0
0.01 0 0
0.015 0 0
0.02 0 0
0.025 0 0
0.03 0 0
0.035 0 0
0.04 0 0
0.045 0 0
0.05 0 0
0.055 0 0
0.06 0 0
0.065 0 0
0.07 0 0
0.075 0 0
0.08 0 0
0.085 0 0
0.09 0 0
0.095 0 0
0.1 0 0
0 0.005 0
0.005 0.005 0
0.01 0.005 0
0.015 0.005 0
0.02 0.005 0
0.025 0.005 0
0.03 0.005 0
0.035 0.005 0
0.04 0.005 0
0.045 0.005 0
0.05 0.005 0
0.055 0.005 0
0.06 0.005 0
0.065 0.005 0
0.07 0.005 0
0.075 0.005 0
0.08 0.005 0
0.085 0.005 0
0.09 0.005 0
0.095 0.005 0
0.1 0.005 0
0 0.01 0
0.005 0.01 0
0.01 0.01 0
0.015 0.01 0
0.02 0.01 0
0.025 0.01 0
0.03 0.01 0
0.035 0.01 0
0.04 0.01 0
0.045 0.01 0
0.05 0.01 0
0.055 0.01 0
0.06 0.01 0
0.065 0.01 0
0.07 0.01 0
0.075 0.01 0
0.08 0.01 0
0.085 0.01 0
0.09 0.01 0
0.095 0.01 0
0.1 0.01 0
0 0.015 0
0.005 0.015 0
0.01 0.015 0
0.015 0.015 0
0.02 0.015 0
0.025 0.015 0
0.03 0.015 0
0.035 0.015 0
0.04 0.015 0
0.045 0.015 0
0.05 0.015 0
0.055 0.015 0
0.06 0.015 0
0.065 0.015 0
0.07 0.015 0
0.075 0.015 0
0.08 0.015 0
0.085 0.015 0
0.09 0.015 0
0.095 0.015 0
0.1 0.015 0
0 0.02 0
0.005 0.02 0
0.01 0.02 0
0.015 0.02 0
0.02 0.02 0
0.025 0.02 0
0.03 0.02 0
0.035 0.02 0
0.04 0.02 0
0.045 0.02 0
0.05 0.02 0
0.055 0.02 0
0.06 0.02 0
0.065 0.02 0
0.07 0.02 0
0.075 0.02 0
0.08 0.02 0
0.085 0.02 0
0.09 0.02 0
0.095 0.02 0
0.1 0.02 0
0 0.025 0
0.005 0.025 0
0.01 0.025 0
0.015 0.025 0
0.02 0.025 0
0.025 0.025 0
0.03 0.025 0
0.035 0.025 0
0.04 0.025 0
0.045 0.025 0
0.05 0.025 0
0.055 0.025 0
0.06 0.025 0
0.065 0.025 0
0.07 0.025 0
0.075 0.025 0
0.08 0.025 0
0.085 0.025 0
0.09 0.025 0
0.095 0.025 0
0.1 0.025 0
0 0.03 0
0.005 0.03 0
0.01 0.03 0
0.015 0.03 0
0.02 0.03 0
0.025 0.03 0
0.03 0.03 0
0.035 0.03 0
0.04 0.03 0
0.045 0.03 0
0.05 0.03 0
0.055 0.03 0
0.06 0.03 0
0.065 0.03 0
0.07 0.03 0
0.075 0.03 0
0.08 0.03 0
0.085 0.03 0
0.09 0.03 0
0.095 0.03 0
0.1 0.03 0
0 0 0.005
0.005 0 0.005
0.01 0 0.005
0.015 0 0.005
0.02 0 0.005
0.025 0 0.005
0.03 0 0.005
0.035 0 0.005
0.04 0 0.005
0.045 0 0.005
0.05 0 0.005
0.055 0 0.005
0.06 0 0.005
0.065 0 0.005
0.07 0 0.005
0.075 0 0.005
0.08 0 0.005
0.085 0 0.005
0.09 0 0.005
0.095 0 0.005
0.1 0 0.005
0 0.005 0.005
0.005 0.005 0.005
0.01 0.005 0.005
0.015 0.005 0.005
0.02 0.005 0.005
0.025 0.005 0.005
0.03 0.005 0.005
0.035 0.005 0.005
0.04 0.005 0.005
0.045 0.005 0.005
0.05 0.005 0.005
0.055 0.005 0.005
0.06 0.005 0.005
0.065 0.005 0.005
0.07 0.005 0.005
0.075 0.005 0.005
0.08 0.005 0.005
0.085 0.005 0.005
0.09 0.005 0.005
0.095 0.005 0.005
0.1 0.005 0.005
0 0.01 0.005
0.005 0.01 0.005
0.01 0.01 0.005
0.015 0.01 0.005
0.02 0.01 0.005
0.025 0.01 0.005
0.03 0.01 0.005
0.035 0.01 0.005
0.04 0.01 0.005
0.045 0.01 0.005
0.05 0.01 0.005
0.055 0.01 0.005
0.06 0.01 0.005
0.065 0.01 0.005
0.07 0.01 0.005
0.075 0.01 0.005
0.08 0.01 0.005
0.085 0.01 0.005
0.09 0.01 0.005
0.095 0.01 0.005
0.1 0.01 0.005
0 0.015 0.005
0.005 0.015 0.005
0.01 0.015 0.005
0.015 0.015 0.005
0.02 0.015 0.005
0.025 0.015 0.005
0.03 0.015 0.005
0.035 0.015 0.005
0.04 0.015 0.005
0.045 0.015 0.005
0.05 0.015 0.005
0.055 0.015 0.005
0.06 0.015 0.005
0.065 0.015 0.005
0.07 0.015 0.005
0.075 0.015 0.005
0.08 0.015 0.005
0.085 0.015 0.005
0.09 0.015 0.005
0.095 0.015 0.005
0.1 0.015 0.005
0 0.02 0.005
0.005 0.02 0.005
0.01 0.02 0.005
0.015 0.02 0.005
0.02 0.02 0.005
0.025 0.02 0.005
0.03 0.02 0.005
0.035 0.02 0.005
0.04 0.02 0.005
0.045 0.02 0.005
0.05 0.02 0.005
0.055 0.02 0.005
0.06 0.02 0.005
0.065 0.02 0.005
0.07 0.02 0.005
0.075 0.02 0.005
0.08 0.02 0.005
0.085 0.02 0.005
0.09 0.02 0.005
0.095 0.02 0.005
0.1 0.02 0.005
0 0.025 0.005
0.005 0.025 0.005
0.01 0.025 0.005
0.015 0.025 0.005
0.02 0.025 0.005
0.025 0.025 0.005
0.03 0.025 0.005
0.035 0.025 0.005
0.04 0.025 0.005
0.045 0.025 0.005
0.05 0.025 0.005
0.055 0.025 0.005
0.06 0.025 0.005
0.065 0.025 0.005
0.07 0.025 0.005
0.075 0.025 0.005
0.08 0.025 0.005
0.085 0.025 0.005
0.09 0.025 0.005
0.095 0.025 0.005
0.1 0.025 0.005
0 0.03 0.005
0.005 0.03 0.005
0.01 0.03 0.005
0.015 0.03 0.005
0.02 0.03 0.005
0.025 0.03 0.005
0.03 0.03 0.005
0.035 0.03 0.005
0.04 0.03 0.005
0.045 0.03 0.005
0.05 0.03 0.005
0.055 0.03 0.005
0.06 0.03 0.005
0.065 0.03 0.005
0.07 0.03 0.005
0.075 0.03 0.005
0.08 0.03 0.005
0.085 0.03 0.005
0.09 0.03 0.005
0.095 0.03 0.005
0.1 0.03 0.005
0 0 0.01
0.005 0 0.01
0.01 0 0.01
0.015 0 0.01
0.02 0 0.01
0.025 0 0.01
0.03 0 0.01
0.035 0 0.01
0.04 0 0.01
0.045 0 0.01
0.05 0 0.01
0.055 0 0.01
0.06 0 0.01
0.065 0 0.01
0.07 0 0.01
0.075 0 0.01
0.08 0 0.01
0.085 0 0.01
0.09 0 0.01
0.095 0 0.01
0.1 0 0.01
0 0.005 0.01
0.005 0.005 0.01
0.01 0.005 0.01
0.015 0.005 0.01
0.02 0.005 0.01
0.025 0.005 0.01
0.03 0.005 0.01
0.035 0.005 0.01
0.04 0.005 0.01
0.045 0.005 0.01
0.05 0.005 0.01
0.055 0.005 0.01
0.06 0.005 0.01
0.065 0.005 0.01
0.07 0.005 0.01
0.075 0.005 0.01
0.08 0.005 0.01
0.085 0.005 0.01
0.09 0.005 0.01
0.095 0.005 0.01
0.1 0.005 0.01
0 0.01 0.01
0.005 0.01 0.01
0.01 0.01 0.01
0.015 0.01 0.01
0.02 0.01 0.01
0.025 0.01 0.01
0.03 0.01 0.01
0.035 0.01 0.01
0.04 0.01 0.01
0.045 0.01 0.01
0.05 0.01 0.01
0.055 0.01 0.01
0.06 0.01 0.01
0.065 0.01 0.01
0.07 0.01 0.01
0.075 0.01 0.01
0.08 0.01 0.01
0.085 0.01 0.01
0.09 0.01 0.01
0.095 0.01 0.01
0.1 0.01 0.01
0 0.015 0.01
0.005 0.015 0.01
0.01 0.015 0.01
0.015 0.015 0.01
0.02 0.015 0.01
0.025 0.015 0.01
0.03 0.015 0.01
0.035 0.015 0.01
0.04 0.015 0.01
0.045 0.015 0.01
0.05 0.015 0.01
0.055 0.015 0.01
0.06 0.015 0.01
0.065 0.015 0.01
0.07 0.015 0.01
0.075 0.015 0.01
0.08 0.015 0.01
0.085 0.015 0.01
0.09 0.015 0.01
0.095 0.015 0.01
0.1 0.015 0.01
0 0.02 0.01
0.005 0.02 0.01
0.01 0.02 0.01
0.015 0.02 0.01
0.02 0.02 0.01
0.025 0.02 0.01
0.03 0.02 0.01
0.035 0.02 0.01
0.04 0.02 0.01
0.045 0.02 0.01
0.05 0.02 0.01
0.055 0.02 0.01
0.06 0.02 0.01
0.065 0.02 0.01
0.07 0.02 0.01
0.075 0.02 0.01
0.08 0.02 0.01
0.085 0.02 0.01
0.09 0.02 0.01
0.095 0.02 0.01
0.1 0.02 0.01
0 0.025 0.01
0.005 0.025 0.01
0.01 0.025 0.01
0.015 0.025 0.01
0.02 0.025 0.01
0.025 0.025 0.01
0.03 0.025 0.01
0.035 0.025 0.01
0.04 0.025 0.01
0.045 0.025 0.01
0.05 0.025 0.01
0.055 0.025 0.01
0.06 0.025 0.01
0.065 0.025 0.01
0.07 0.025 0.01
0.075 0.025 0.01
0.08 0.025 0.01
0.085 0.025 0.01
0.09 0.025 0.01
0.095 0.025 0.01
0.1 0.025 0.01
0 0.03 0.01
0.005 0.03 0.01
0.01 0.03 0.01
0.015 0.03 0.01
0.02 0.03 0.01
0.025 0.03 0.01
0.03 0.03 0.01
0.035 0.03 0.01
0.04 0.03 0.01
0.045 0.03 0.01
0.05 0.03 0.01
0.055 0.03 0.01
0.06 0.03 0.01
0.065 0.03 0.01
0.07 0.03 0.01
0.075 0.03 0.01
0.08 0.03 0.01
0.085 0.03 0.01
0.09 0.03 0.01
0.095 0.03 0.01
0.1 0.03 0.01
0 0 0.015
0.005 0 0.015
0.01 0 0.015
0.015 0 0.015
0.02 0 0.015
0.025 0 0.015
0.03 0 0.015
0.035 0 0.015
0.04 0 0.015
0.045 0 0.015
0.05 0 0.015
0.055 0 0.015
0.06 0 0.015
0.065 0 0.015
0.07 0 0.015
0.075 0 0.015
0.08 0 0.015
0.085 0 0.015
0.09 0 0.015
0.095 0 0.015
0.1 0 0.015
0 0.005 0.015
0.005 0.005 0.015
0.01 0.005 0.015
0.015 0.005 0.015
0.02 0.005 0.015
0.025 0.005 0.015
0.03 0.005 0.015
0.035 0.005 0.015
0.04 0.005 0.015
0.045 0.005 0.015
0.05 0.005 0.015
0.055 0.005 0.015
0.06 0.005 0.015
0.065 0.005 0.015
0.07 0.005 0.015
0.075 0.005 0.015
0.08 0.005 0.015
0.085 0.005 0.015
0.09 0.005 0.015
0.095 0.005 0.015
0.1 0.005 0.015
0 0.01 0.015
0.005 0.01 0.015
0.01 0.01 0.015
0.015 0.01 0.015
0.02 0.01 0.015
0.025 0.01 0.015
0.03 0.01 0.015
0.035 0.01 0.015
0.04 0.01 0.015
0.045 0.01 0.015
0.05 0.01 0.015
0.055 0.01 0.015
0.06 0.01 0.015
0.065 0.01 0.015
0.07 0.01 0.015
0.075 0.01 0.015
0.08 0.01 0.015
0.085 0.01 0.015
0.09 0.01 0.015
0.095 0.01 0.015
0.1 0.01 0.015
0 0.015 0.015
0.005 0.015 0.015
0.01 0.015 0.015
0.015 0.015 0.015
0.02 0.015 0.015
0.025 0.015 0.015
0.03 0.015 0.015
0.035 0.015 0.015
0.04 0.015 0.015
0.045 0.015 0.015
0.05 0.015 0.015
0.055 0.015 0.015
0.06 0.015 0.015
0.065 0.015 0.015
0.07 0.015 0.015
0.075 0.015 0.015
0.08 0.015 0.015
0.085 0.015 0.015
0.09 0.015 0.015
0.095 0.015 0.015
0.1 0.015 0.015
0 0.02 0.015
0.005 0.02 0.015
0.01 0.02 0.015
0.015 0.02 0.015
0.02 0.02 0.015
0.025 0.02 0.015
0.03 0.02 0.015
0.035 0.02 0.015
0.04 0.02 0.015
0.045 0.02 0.015
0.05 0.02 0.015
0.055 0.02 0.015
0.06 0.02 0.015
0.065 0.02 0.015
0.07 0.02 0.015
0.075 0.02 0.015
0.08 0.02 0.015
0.085 0.02 0.015
0.09 0.02 0.015
0.095 0.02 0.015
0.1 0.02 0.015
0 0.025 0.015
0.005 0.025 0.015
0.01 0.025 0.015
0.015 0.025 0.015
0.02 0.025 0.015
0.025 0.025 0.015
0.03 0.025 0.015
0.035 0.025 0.015
0.04 0.025 0.015
0.045 0.025 0.015
0.05 0.025 0.015
0.055 0.025 0.015
0.06 0.025 0.015
0.065 0.025 0.015
0.07 0.025 0.015
0.075 0.025 0.015
0.08 0.025 0.015
0.085 0.025 0.015
0.09 0.025 0.015
0.095 0.025 0.015
0.1 0.025 0.015
0 0.03 0.015
0.005 0.03 0.015
0.01 0.03 0.015
0.015 0.03 0.015
0.02 0.03 0.015
0.025 0.03 0.015
0.03 0.03 0.015
0.035 0.03 0.015
0.04 0.03 0.015
0.045 0.03 0.015
0.05 0.03 0.015
0.055 0.03 0.015
0.06 0.03 0.015
0.065 0.03 0.015
0.07 0.03 0.015
0.075 0.03 0.015
0.08 0.03 0.015
0.085 0.03 0.015
0.09 0.03 0.015
0.095 0.03 0.015
0.1 0.03 0.015
0 0 0.02
0.005 0 0.02
0.01 0 0.02
0.015 0 0.02
0.02 0 0.02
0.025 0 0.02
0.03 0 0.02
0.035 0 0.02
0.04 0 0.02
0.045 0 0.02
0.05 0 0.02
0.055 0 0.02
0.06 0 0.02
0.065 0 0.02
0.07 0 0.02
0.075 0 0.02
0.08 0 0.02
0.085 0 0.02
0.09 0 0.02
0.095 0 0.02
0.1 0 0.02
0 0.005 0.02
0.005 0.005 0.02
0.01 0.005 0.02
0.015 0.005 0.02
0.02 0.005 0.02
0.025 0.005 0.02
0.03 0.005 0.02
0.035 0.005 0.02
0.04 0.005 0.02
0.045 0.005 0.02
0.05 0.005 0.02
0.055 0.005 0.02
0.06 0.005 0.02
0.065 0.005 0.02
0.07 0.005 0.02
0.075 0.005 0.02
0.08 0.005 0.02
0.085 0.005 0.02
0.09 0.005 0.02
0.095 0.005 0.02
0.1 0.005 0.02
0 0.01 0.02
0.005 0.01 0.02
0.01 0.01 0.02
0.015 0.01 0.02
0.02 0.01 0.02
0.025 0.01 0.02
0.03 0.01 0.02
0.035 0.01 0.02
0.04 0.01 0.02
0.045 0.01 0.02
0.05 0.01 0.02
0.055 0.01 0.02
0.06 0.01 0.02
0.065 0.01 0.02
0.07 0.01 0.02
0.075 0.01 0.02
0.08 0.01 0.02
0.085 0.01 0.02
0.09 0.01 0.02
0.095 0.01 0.02
[...]
<PointData Vectors="Displacement">
<DataArray type="Float32" Name="Displacement" NumberOfComponents="3" format="ascii">
0 0 0
0.000121432 2.71514e-05 2.71514e-05
0.000223301 3.5954e-05 3.5954e-05
0.000324918 3.9865e-05 3.9865e-05
0.000428516 4.10807e-05 4.10807e-05
0.000533841 4.13096e-05 4.13096e-05
0.000640255 4.12183e-05 4.12183e-05
0.000747245 4.10851e-05 4.10851e-05
0.000854505 4.09939e-05 4.09939e-05
0.000961884 4.0965e-05 4.0965e-05
0.00106931 4.1014e-05 4.1014e-05
0.00117673 4.11787e-05 4.11787e-05
0.00128393 4.1518e-05 4.1518e-05
0.00139046 4.20683e-05 4.20683e-05
0.00149529 4.26964e-05 4.26964e-05
0.00159654 4.27226e-05 4.27226e-05
0.00169147 4.02681e-05 4.02681e-05
0.00177717 3.0372e-05 3.0372e-05
0.00185439 4.87709e-06 4.87709e-06
0.00195951 -7.85515e-05 -7.85515e-05
0.002 -0.000136582 -0.000136582
0 0 0
0.000112085 1.39081e-05 2.71588e-05
0.000217748 2.32418e-05 3.6315e-05
0.000322166 2.66126e-05 4.00219e-05
0.000427359 2.76527e-05 4.11584e-05
0.000533449 2.77545e-05 4.13384e-05
0.000640176 2.76071e-05 4.12261e-05
0.00074726 2.74511e-05 4.10848e-05
0.00085452 2.73517e-05 4.09908e-05
0.000961859 2.73183e-05 4.09603e-05
0.00106923 2.73626e-05 4.10074e-05
0.00117657 2.75237e-05 4.11703e-05
0.00128375 2.78715e-05 4.15122e-05
0.00139048 2.84721e-05 4.20807e-05
0.00149611 2.92523e-05 4.27669e-05
0.00159957 2.96575e-05 4.2941e-05
0.00169949 2.78193e-05 4.07775e-05
0.00179508 1.94429e-05 3.15382e-05
0.00188956 -6.96025e-06 6.4378e-06
0.00199497 -5.43928e-05 -8.15615e-05
0.002 -8.19522e-05 -0.000145036
0 0 0
0.000110906 6.24665e-06 2.745e-05
0.000214763 1.09381e-05 3.67028e-05
0.000319877 1.32586e-05 4.03345e-05
0.000426013 1.39176e-05 4.13246e-05
0.000532795 1.39716e-05 4.14124e-05
0.000639906 1.38636e-05 4.12517e-05
0.000747165 1.37559e-05 4.10891e-05
0.000854482 1.36884e-05 4.09866e-05
0.000961824 1.36654e-05 4.09519e-05
0.00106918 1.36942e-05 4.09963e-05
0.00117655 1.38009e-05 4.11601e-05
0.00128391 1.4034e-05 4.15171e-05
0.00139115 1.44421e-05 4.21405e-05
0.00149799 1.49879e-05 4.29726e-05
0.00160383 1.53045e-05 4.34611e-05
0.00170752 1.41609e-05 4.18662e-05
0.00180719 8.18325e-06 3.31795e-05
0.00189947 -6.68448e-06 7.40763e-06
0.00199858 -2.67665e-05 -8.59511e-05
0.002 -3.78134e-05 -0.000155325
0 0 0
0.000110589 1.86723e-19 2.75343e-05
0.000214119 2.69327e-19 3.68625e-05
0.000319064 4.92506e-19 4.04611e-05
0.000425467 7.87297e-19 4.14041e-05
0.000532499 1.0456e-18 4.14498e-05
0.000639771 1.28994e-18 4.1266e-05
0.000747111 1.42336e-18 4.10924e-05
0.00085446 1.47304e-18 4.09852e-05
0.000961809 1.48702e-18 4.09484e-05
0.00106917 1.7868e-18 4.09919e-05
0.00117657 1.6884e-18 4.11572e-05
0.00128403 1.49831e-18 4.15236e-05
0.00139151 1.71868e-18 4.21769e-05
0.00149889 2.01068e-18 4.3082e-05
0.00160566 2.19596e-18 4.37212e-05
0.00171059 2.37418e-18 4.23438e-05
0.00181047 2.38555e-18 3.37924e-05
0.00190111 2.1129e-18 7.40731e-06
0.00199859 2.58548e-18 -8.78174e-05
0.002 2.3122e-18 -0.000158723
0 0 0
0.000110906 -6.24665e-06 2.745e-05
0.000214763 -1.09381e-05 3.67028e-05
0.000319877 -1.32586e-05 4.03345e-05
0.000426013 -1.39176e-05 4.13246e-05
0.000532795 -1.39716e-05 4.14124e-05
0.000639906 -1.38636e-05 4.12517e-05
0.000747165 -1.37559e-05 4.10891e-05
0.000854482 -1.36884e-05 4.09866e-05
0.000961824 -1.36654e-05 4.09519e-05
0.00106918 -1.36942e-05 4.09963e-05
0.00117655 -1.38009e-05 4.11601e-05
0.00128391 -1.4034e-05 4.15171e-05
0.00139115 -1.44421e-05 4.21405e-05
0.00149799 -1.49879e-05 4.29726e-05
0.00160383 -1.53045e-05 4.34611e-05
0.00170752 -1.41609e-05 4.18662e-05
0.00180719 -8.18325e-06 3.31795e-05
0.00189947 6.68448e-06 7.40763e-06
0.00199858 2.67665e-05 -8.59511e-05
0.002 3.78134e-05 -0.000155325
0 0 0
0.000112085 -1.39081e-05 2.71588e-05
0.000217748 -2.32418e-05 3.6315e-05
0.000322166 -2.66126e-05 4.00219e-05
0.000427359 -2.76527e-05 4.11584e-05
0.000533449 -2.77545e-05 4.13384e-05
0.000640176 -2.76071e-05 4.12261e-05
0.00074726 -2.74511e-05 4.10848e-05
0.00085452 -2.73517e-05 4.09908e-05
0.000961859 -2.73183e-05 4.09603e-05
0.00106923 -2.73626e-05 4.10074e-05
0.00117657 -2.75237e-05 4.11703e-05
0.00128375 -2.78715e-05 4.15122e-05
0.00139048 -2.84721e-05 4.20807e-05
0.00149611 -2.92523e-05 4.27669e-05
0.00159957 -2.96575e-05 4.2941e-05
0.00169949 -2.78193e-05 4.07775e-05
0.00179508 -1.94429e-05 3.15382e-05
0.00188956 6.96025e-06 6.4378e-06
0.00199497 5.43928e-05 -8.15615e-05
0.002 8.19522e-05 -0.000145036
0 0 0
0.000121432 -2.71514e-05 2.71514e-05
0.000223301 -3.5954e-05 3.5954e-05
0.000324918 -3.9865e-05 3.9865e-05
0.000428516 -4.10807e-05 4.10807e-05
0.000533841 -4.13096e-05 4.13096e-05
0.000640255 -4.12183e-05 4.12183e-05
0.000747245 -4.10851e-05 4.10851e-05
0.000854505 -4.09939e-05 4.09939e-05
0.000961884 -4.0965e-05 4.0965e-05
0.00106931 -4.1014e-05 4.1014e-05
0.00117673 -4.11787e-05 4.11787e-05
0.00128393 -4.1518e-05 4.1518e-05
0.00139046 -4.20683e-05 4.20683e-05
0.00149529 -4.26964e-05 4.26964e-05
0.00159654 -4.27226e-05 4.27226e-05
0.00169147 -4.02681e-05 4.02681e-05
0.00177717 -3.0372e-05 3.0372e-05
0.00185439 -4.87709e-06 4.87709e-06
0.00195951 7.85515e-05 -7.85515e-05
0.002 0.000136582 -0.000136582
0 0 0
0.000112085 2.71588e-05 1.39081e-05
0.000217748 3.6315e-05 2.32418e-05
0.000322166 4.00219e-05 2.66126e-05
0.000427359 4.11584e-05 2.76527e-05
0.000533449 4.13384e-05 2.77545e-05
0.000640176 4.12261e-05 2.76071e-05
0.00074726 4.10848e-05 2.74511e-05
0.00085452 4.09908e-05 2.73517e-05
0.000961859 4.09603e-05 2.73183e-05
0.00106923 4.10074e-05 2.73626e-05
0.00117657 4.11703e-05 2.75237e-05
0.00128375 4.15122e-05 2.78715e-05
0.00139048 4.20807e-05 2.84721e-05
0.00149611 4.27669e-05 2.92523e-05
0.00159957 4.2941e-05 2.96575e-05
0.00169949 4.07775e-05 2.78193e-05
0.00179508 3.15382e-05 1.94429e-05
0.00188956 6.4378e-06 -6.96025e-06
0.00199497 -8.15615e-05 -5.43928e-05
0.002 -0.000145036 -8.19522e-05
0 0 0
0.000102627 1.38799e-05 1.38799e-05
0.000212159 2.31919e-05 2.31919e-05
0.000319492 2.65855e-05 2.65855e-05
0.000426253 2.76307e-05 2.76307e-05
0.000533088 2.77435e-05 2.77435e-05
0.000640112 2.76021e-05 2.76021e-05
0.000747281 2.74495e-05 2.74495e-05
0.000854538 2.73517e-05 2.73517e-05
0.000961836 2.7319e-05 2.7319e-05
0.00106914 2.73633e-05 2.73633e-05
0.00117641 2.75232e-05 2.75232e-05
0.00128356 2.78672e-05 2.78672e-05
0.00139045 2.8458e-05 2.8458e-05
0.00149683 2.92186e-05 2.92186e-05
0.00160242 2.95901e-05 2.95901e-05
0.00170725 2.77201e-05 2.77201e-05
0.0018129 1.93763e-05 1.93763e-05
0.00192627 -6.97211e-06 -6.97211e-06
0.00203286 -5.44723e-05 -5.44723e-05
0.002 -8.22876e-05 -8.22876e-05
0 0 0
0.000101396 6.17651e-06 1.39927e-05
0.000209167 1.08434e-05 2.33987e-05
0.000317233 1.31793e-05 2.67484e-05
0.000424954 1.38704e-05 2.77219e-05
0.000532465 1.39478e-05 2.77833e-05
0.000639859 1.38541e-05 2.76155e-05
0.000747194 1.37533e-05 2.74514e-05
0.000854504 1.36889e-05 2.73491e-05
0.000961802 1.36673e-05 2.73142e-05
0.00106909 1.36964e-05 2.73568e-05
0.00117639 1.38017e-05 2.75167e-05
0.0012837 1.4028e-05 2.78682e-05
0.00139107 1.44167e-05 2.84887e-05
0.0014986 1.49181e-05 2.93309e-05
0.00160651 1.51518e-05 2.98847e-05
0.00171514 1.38947e-05 2.83283e-05
0.0018253 7.85647e-06 2.0267e-05
0.00193742 -6.70026e-06 -6.80477e-06
0.00203782 -2.59995e-05 -5.72662e-05
0.002 -3.65211e-05 -8.77104e-05
0 0 0
0.00010105 8.60671e-20 1.40553e-05
0.000208516 2.70356e-19 2.34888e-05
0.000316437 4.90593e-19 2.68298e-05
0.000424427 7.41459e-19 2.77711e-05
0.000532183 9.45644e-19 2.78067e-05
0.000639731 1.17822e-18 2.76241e-05
0.000747144 1.28805e-18 2.74532e-05
0.000854483 1.40389e-18 2.7348e-05
0.000961788 1.46002e-18 2.73118e-05
0.00106908 1.5094e-18 2.73537e-05
0.0011764 1.46357e-18 2.75144e-05
0.0012838 1.48453e-18 2.78713e-05
0.00139141 1.56027e-18 2.85102e-05
0.00149945 1.81609e-18 2.93995e-05
0.00160827 1.93466e-18 3.00502e-05
0.00171816 2.09701e-18 2.86398e-05
0.0018287 2.04717e-18 2.06316e-05
0.00193958 2.16223e-18 -6.89836e-06
0.00203844 2.08799e-18 -5.85419e-05
0.002 2.11563e-18 -8.98706e-05
0 0 0
0.000101396 -6.17651e-06 1.39927e-05
0.000209167 -1.08434e-05 2.33987e-05
0.000317233 -1.31793e-05 2.67484e-05
0.000424954 -1.38704e-05 2.77219e-05
0.000532465 -1.39478e-05 2.77833e-05
0.000639859 -1.38541e-05 2.76155e-05
0.000747194 -1.37533e-05 2.74514e-05
0.000854504 -1.36889e-05 2.73491e-05
0.000961802 -1.36673e-05 2.73142e-05
0.00106909 -1.36964e-05 2.73568e-05
0.00117639 -1.38017e-05 2.75167e-05
0.0012837 -1.4028e-05 2.78682e-05
0.00139107 -1.44167e-05 2.84887e-05
0.0014986 -1.49181e-05 2.93309e-05
0.00160651 -1.51518e-05 2.98847e-05
0.00171514 -1.38947e-05 2.83283e-05
0.0018253 -7.85647e-06 2.0267e-05
0.00193742 6.70026e-06 -6.80477e-06
0.00203782 2.59995e-05 -5.72662e-05
0.002 3.65211e-05 -8.77104e-05
0 0 0
0.000102627 -1.38799e-05 1.38799e-05
0.000212159 -2.31919e-05 2.31919e-05
0.000319492 -2.65855e-05 2.65855e-05
0.000426253 -2.76307e-05 2.76307e-05
0.000533088 -2.77435e-05 2.77435e-05
0.000640112 -2.76021e-05 2.76021e-05
0.000747281 -2.74495e-05 2.74495e-05
0.000854538 -2.73517e-05 2.73517e-05
0.000961836 -2.7319e-05 2.7319e-05
0.00106914 -2.73633e-05 2.73633e-05
0.00117641 -2.75232e-05 2.75232e-05
0.00128356 -2.78672e-05 2.78672e-05
0.00139045 -2.8458e-05 2.8458e-05
0.00149683 -2.92186e-05 2.92186e-05
0.00160242 -2.95901e-05 2.95901e-05
0.00170725 -2.77201e-05 2.77201e-05
0.0018129 -1.93763e-05 1.93763e-05
0.00192627 6.97211e-06 -6.97211e-06
0.00203286 5.44723e-05 -5.44723e-05
0.002 8.22876e-05 -8.22876e-05
0 0 0
0.000112085 -2.71588e-05 1.39081e-05
0.000217748 -3.6315e-05 2.32418e-05
0.000322166 -4.00219e-05 2.66126e-05
0.000427359 -4.11584e-05 2.76527e-05
0.000533449 -4.13384e-05 2.77545e-05
0.000640176 -4.12261e-05 2.76071e-05
0.00074726 -4.10848e-05 2.74511e-05
0.00085452 -4.09908e-05 2.73517e-05
0.000961859 -4.09603e-05 2.73183e-05
0.00106923 -4.10074e-05 2.73626e-05
0.00117657 -4.11703e-05 2.75237e-05
0.00128375 -4.15122e-05 2.78715e-05
0.00139048 -4.20807e-05 2.84721e-05
0.00149611 -4.27669e-05 2.92523e-05
0.00159957 -4.2941e-05 2.96575e-05
0.00169949 -4.07775e-05 2.78193e-05
0.00179508 -3.15382e-05 1.94429e-05
0.00188956 -6.4378e-06 -6.96025e-06
0.00199497 8.15615e-05 -5.43928e-05
0.002 0.000145036 -8.19522e-05
0 0 0
0.000110906 2.745e-05 6.24665e-06
0.000214763 3.67028e-05 1.09381e-05
0.000319877 4.03345e-05 1.32586e-05
0.000426013 4.13246e-05 1.39176e-05
0.000532795 4.14124e-05 1.39716e-05
0.000639906 4.12517e-05 1.38636e-05
0.000747165 4.10891e-05 1.37559e-05
0.000854482 4.09866e-05 1.36884e-05
0.000961824 4.09519e-05 1.36654e-05
0.00106918 4.09963e-05 1.36942e-05
0.00117655 4.11601e-05 1.38009e-05
0.00128391 4.15171e-05 1.4034e-05
0.00139115 4.21405e-05 1.44421e-05
0.00149799 4.29726e-05 1.49879e-05
0.00160383 4.34611e-05 1.53045e-05
0.00170752 4.18662e-05 1.41609e-05
0.00180719 3.31795e-05 8.18325e-06
0.00189947 7.40763e-06 -6.68448e-06
0.00199858 -8.59511e-05 -2.67665e-05
0.002 -0.000155325 -3.78134e-05
0 0 0
0.000101396 1.39927e-05 6.17651e-06
0.000209167 2.33987e-05 1.08434e-05
0.000317233 2.67484e-05 1.31793e-05
0.000424954 2.77219e-05 1.38704e-05
0.000532465 2.77833e-05 1.39478e-05
0.000639859 2.76155e-05 1.38541e-05
0.000747194 2.74514e-05 1.37533e-05
0.000854504 2.73491e-05 1.36889e-05
0.000961802 2.73142e-05 1.36673e-05
0.00106909 2.73568e-05 1.36964e-05
0.00117639 2.75167e-05 1.38017e-05
0.0012837 2.78682e-05 1.4028e-05
0.00139107 2.84887e-05 1.44167e-05
0.0014986 2.93309e-05 1.49181e-05
0.00160651 2.98847e-05 1.51518e-05
0.00171514 2.83283e-05 1.38947e-05
0.0018253 2.0267e-05 7.85647e-06
0.00193742 -6.80477e-06 -6.70026e-06
0.00203782 -5.72662e-05 -2.59995e-05
0.002 -8.77104e-05 -3.65211e-05
0 0 0
0.000100197 6.22198e-06 6.22198e-06
0.000206172 1.09092e-05 1.09092e-05
0.00031496 1.32391e-05 1.32391e-05
0.000423649 1.39064e-05 1.39064e-05
0.000531844 1.39642e-05 1.39642e-05
0.000639609 1.38596e-05 1.38596e-05
0.00074711 1.37541e-05 1.37541e-05
0.000854472 1.36878e-05 1.36878e-05
0.000961769 1.36653e-05 1.36653e-05
0.00106905 1.36938e-05 1.36938e-05
0.00117636 1.3799e-05 1.3799e-05
0.00128382 1.40284e-05 1.40284e-05
0.00139167 1.44297e-05 1.44297e-05
0.00150037 1.49664e-05 1.49664e-05
0.00161063 1.52776e-05 1.52776e-05
0.00172318 1.41418e-05 1.41418e-05
0.001838 8.13791e-06 8.13791e-06
0.00194846 -6.80086e-06 -6.80086e-06
0.00204199 -2.70749e-05 -2.70749e-05
0.002 -3.84951e-05 -3.84951e-05
0 0 0
9.98599e-05 8.63973e-20 6.24648e-06
0.000205524 2.04834e-19 1.09481e-05
0.000314157 4.71853e-19 1.32736e-05
0.000423117 6.69441e-19 1.39283e-05
0.000531562 8.84235e-19 1.39748e-05
0.000639483 1.1165e-18 1.38635e-05
0.00074706 1.14649e-18 1.37549e-05
0.000854451 1.21646e-18 1.36873e-05
0.000961755 1.23723e-18 1.36642e-05
0.00106904 1.36266e-18 1.36923e-05
0.00117637 1.34268e-18 1.37978e-05
0.00128392 1.31303e-18 1.40298e-05
0.00139201 1.41306e-18 1.44397e-05
0.00150122 1.54329e-18 1.49986e-05
0.00161242 1.62356e-18 1.53548e-05
0.00172628 1.76069e-18 1.42791e-05
0.00184146 1.72816e-18 8.27575e-06
0.00195052 1.97407e-18 -6.88977e-06
0.00204237 2.04821e-18 -2.76516e-05
0.002 2.1912e-18 -3.94567e-05
0 0 0
0.000100197 -6.22198e-06 6.22198e-06
0.000206172 -1.09092e-05 1.09092e-05
0.00031496 -1.32391e-05 1.32391e-05
0.000423649 -1.39064e-05 1.39064e-05
0.000531844 -1.39642e-05 1.39642e-05
0.000639609 -1.38596e-05 1.38596e-05
0.00074711 -1.37541e-05 1.37541e-05
0.000854472 -1.36878e-05 1.36878e-05
0.000961769 -1.36653e-05 1.36653e-05
0.00106905 -1.36938e-05 1.36938e-05
0.00117636 -1.3799e-05 1.3799e-05
0.00128382 -1.40284e-05 1.40284e-05
0.00139167 -1.44297e-05 1.44297e-05
0.00150037 -1.49664e-05 1.49664e-05
0.00161063 -1.52776e-05 1.52776e-05
0.00172318 -1.41418e-05 1.41418e-05
0.001838 -8.13791e-06 8.13791e-06
0.00194846 6.80086e-06 -6.80086e-06
0.00204199 2.70749e-05 -2.70749e-05
0.002 3.84951e-05 -3.84951e-05
0 0 0
0.000101396 -1.39927e-05 6.17651e-06
0.000209167 -2.33987e-05 1.08434e-05
0.000317233 -2.67484e-05 1.31793e-05
0.000424954 -2.77219e-05 1.38704e-05
0.000532465 -2.77833e-05 1.39478e-05
0.000639859 -2.76155e-05 1.38541e-05
0.000747194 -2.74514e-05 1.37533e-05
0.000854504 -2.73491e-05 1.36889e-05
0.000961802 -2.73142e-05 1.36673e-05
0.00106909 -2.73568e-05 1.36964e-05
0.00117639 -2.75167e-05 1.38017e-05
0.0012837 -2.78682e-05 1.4028e-05
0.00139107 -2.84887e-05 1.44167e-05
0.0014986 -2.93309e-05 1.49181e-05
0.00160651 -2.98847e-05 1.51518e-05
0.00171514 -2.83283e-05 1.38947e-05
0.0018253 -2.0267e-05 7.85647e-06
0.00193742 6.80477e-06 -6.70026e-06
0.00203782 5.72662e-05 -2.59995e-05
0.002 8.77104e-05 -3.65211e-05
0 0 0
0.000110906 -2.745e-05 6.24665e-06
0.000214763 -3.67028e-05 1.09381e-05
0.000319877 -4.03345e-05 1.32586e-05
0.000426013 -4.13246e-05 1.39176e-05
0.000532795 -4.14124e-05 1.39716e-05
0.000639906 -4.12517e-05 1.38636e-05
0.000747165 -4.10891e-05 1.37559e-05
0.000854482 -4.09866e-05 1.36884e-05
0.000961824 -4.09519e-05 1.36654e-05
0.00106918 -4.09963e-05 1.36942e-05
0.00117655 -4.11601e-05 1.38009e-05
0.00128391 -4.15171e-05 1.4034e-05
0.00139115 -4.21405e-05 1.44421e-05
0.00149799 -4.29726e-05 1.49879e-05
0.00160383 -4.34611e-05 1.53045e-05
0.00170752 -4.18662e-05 1.41609e-05
0.00180719 -3.31795e-05 8.18325e-06
0.00189947 -7.40763e-06 -6.68448e-06
0.00199858 8.59511e-05 -2.67665e-05
0.002 0.000155325 -3.78134e-05
0 0 0
0.000110589 2.75343e-05 -1.36421e-19
0.000214119 3.68625e-05 -4.55773e-19
0.000319064 4.04611e-05 -8.69659e-19
0.000425467 4.14041e-05 -1.59963e-18
0.000532499 4.14498e-05 -2.39486e-18
0.000639771 4.1266e-05 -3.2371e-18
0.000747111 4.10924e-05 -4.25349e-18
0.00085446 4.09852e-05 -5.17849e-18
0.000961809 4.09484e-05 -6.34945e-18
0.00106917 4.09919e-05 -7.43042e-18
0.00117657 4.11572e-05 -8.68181e-18
0.00128403 4.15236e-05 -1.00075e-17
0.00139151 4.21769e-05 -1.0773e-17
0.00149889 4.3082e-05 -1.19242e-17
0.00160566 4.37212e-05 -1.28066e-17
0.00171059 4.23438e-05 -1.35586e-17
0.00181047 3.37924e-05 -1.4221e-17
0.00190111 7.40731e-06 -1.4504e-17
0.00199859 -8.78174e-05 -1.49517e-17
0.002 -0.000158723 -1.47162e-17
0 0 0
0.00010105 1.40553e-05 -1.27057e-19
0.000208516 2.34888e-05 -4.56029e-19
0.000316437 2.68298e-05 -9.5179e-19
0.000424427 2.77711e-05 -1.51687e-18
0.000532183 2.78067e-05 -2.29104e-18
0.000639731 2.76241e-05 -3.19221e-18
0.000747144 2.74532e-05 -4.07717e-18
0.000854483 2.7348e-05 -5.06374e-18
0.000961788 2.73118e-05 -6.22474e-18
0.00106908 2.73537e-05 -7.25596e-18
0.0011764 2.75144e-05 -8.46029e-18
0.0012838 2.78713e-05 -9.66242e-18
0.00139141 2.85102e-05 -1.06008e-17
0.00149945 2.93995e-05 -1.16667e-17
0.00160827 3.00502e-05 -1.24982e-17
0.00171816 2.86398e-05 -1.31924e-17
0.0018287 2.06316e-05 -1.38528e-17
0.00193958 -6.89836e-06 -1.41824e-17
0.00203844 -5.85419e-05 -1.44831e-17
0.002 -8.98706e-05 -1.46076e-17
0 0 0
9.98599e-05 6.24648e-06 -1.36122e-19
0.000205524 1.09481e-05 -4.77021e-19
0.000314157 1.32736e-05 -8.85092e-19
0.000423117 1.39283e-05 -1.48366e-18
0.000531562 1.39748e-05 -2.21795e-18
0.000639483 1.38635e-05 -3.05065e-18
0.00074706 1.37549e-05 -3.95625e-18
0.000854451 1.36873e-05 -4.98674e-18
0.000961755 1.36642e-05 -6.0972e-18
0.00106904 1.36923e-05 -7.06195e-18
0.00117637 1.37978e-05 -8.22438e-18
0.00128392 1.40298e-05 -9.43268e-18
0.00139201 1.44397e-05 -1.04428e-17
0.00150122 1.49986e-05 -1.13618e-17
0.00161242 1.53548e-05 -1.23316e-17
0.00172628 1.42791e-05 -1.2839e-17
0.00184146 8.27575e-06 -1.33859e-17
0.00195052 -6.88977e-06 -1.37589e-17
0.00204237 -2.76516e-05 -1.41704e-17
0.002 -3.94567e-05 -1.41568e-17
0 0 0
9.95262e-05 9.91177e-20 -1.30221e-19
0.000204876 2.74927e-19 -4.25442e-19
0.000313353 3.9338e-19 -9.17416e-19
0.000422583 6.10596e-19 -1.4447e-18
0.000531278 7.69255e-19 -2.13784e-18
0.000639356 9.36164e-19 -3.01345e-18
0.000747011 1.01828e-18 -3.94798e-18
0.000854431 1.12615e-18 -4.8768e-18
0.00096174 1.15103e-18 -5.96938e-18
0.00106902 1.14583e-18 -6.91266e-18
0.00117638 1.12982e-18 -7.98834e-18
0.00128402 1.22019e-18 -9.17559e-18
0.00139235 1.16165e-18 -1.01409e-17
0.00150208 1.23705e-18 -1.12184e-17
0.00161422 1.42911e-18 -1.18048e-17
0.0017294 1.44971e-18 -1.2548e-17
0.00184493 1.77653e-18 -1.31735e-17
0.0019525 1.65365e-18 -1.36104e-17
0.00204262 1.79359e-18 -1.37376e-17
0.002 1.66534e-18 -1.38171e-17
0 0 0
9.98599e-05 -6.24648e-06 -9.71618e-20
0.000205524 -1.09481e-05 -4.05014e-19
0.000314157 -1.32736e-05 -7.78429e-19
0.000423117 -1.39283e-05 -1.37399e-18
0.000531562 -1.39748e-05 -2.04186e-18
0.000639483 -1.38635e-05 -2.88297e-18
0.00074706 -1.37549e-05 -3.83001e-18
0.000854451 -1.36873e-05 -4.72547e-18
0.000961755 -1.36642e-05 -5.73445e-18
0.00106904 -1.36923e-05 -6.82047e-18
0.00117637 -1.37978e-05 -7.7989e-18
0.00128392 -1.40298e-05 -9.02703e-18
0.00139201 -1.44397e-05 -9.95309e-18
0.00150122 -1.49986e-05 -1.08855e-17
0.00161242 -1.53548e-05 -1.16881e-17
0.00172628 -1.42791e-05 -1.23392e-17
0.00184146 -8.27575e-06 -1.27664e-17
0.00195052 6.88977e-06 -1.33258e-17
0.00204237 2.76516e-05 -1.33416e-17
0.002 3.94567e-05 -1.32416e-17
0 0 0
0.00010105 -1.40553e-05 -8.76491e-20
0.000208516 -2.34888e-05 -3.10649e-19
0.000316437 -2.68298e-05 -7.3929e-19
0.000424427 -2.77711e-05 -1.27463e-18
0.000532183 -2.78067e-05 -1.96199e-18
0.000639731 -2.76241e-05 -2.79807e-18
0.000747144 -2.74532e-05 -3.69583e-18
0.000854483 -2.7348e-05 -4.6241e-18
0.000961788 -2.73118e-05 -5.58278e-18
0.00106908 -2.73537e-05 -6.63785e-18
0.0011764 -2.75144e-05 -7.8252e-18
0.0012838 -2.78713e-05 -8.75748e-18
0.00139141 -2.85102e-05 -9.64261e-18
0.00149945 -2.93995e-05 -1.06282e-17
0.00160827 -3.00502e-05 -1.14292e-17
0.00171816 -2.86398e-05 -1.20239e-17
0.0018287 -2.06316e-05 -1.25878e-17
0.00193958 6.89836e-06 -1.29295e-17
0.00203844 5.85419e-05 -1.31745e-17
0.002 8.98706e-05 -1.31503e-17
0 0 0
0.000110589 -2.75343e-05 -3.66777e-20
0.000214119 -3.68625e-05 -2.354e-19
0.000319064 -4.04611e-05 -6.28492e-19
0.000425467 -4.14041e-05 -1.26912e-18
0.000532499 -4.14498e-05 -1.98619e-18
0.000639771 -4.1266e-05 -2.6915e-18
0.000747111 -4.10924e-05 -3.53562e-18
0.00085446 -4.09852e-05 -4.41901e-18
0.000961809 -4.09484e-05 -5.45809e-18
0.00106917 -4.09919e-05 -6.44853e-18
0.00117657 -4.11572e-05 -7.56771e-18
0.00128403 -4.15236e-05 -8.50002e-18