<?xml version="1.0"?>
<VTKFile type="UnstructuredGrid" version="0.1" byte_order="LittleEndian">
<UnstructuredGrid>
<Piece NumberOfPoints="1029" NumberOfCells="720">
<Points>
<DataArray type="Float32" NumberOfComponents="3" format="ascii">
0 0 0
0.005 0 0
0.01 0 0
0.015 0 0
0.02 0 0
0.025 0 0
0.03 0 0
0.035 0 0
0.04 0 0
0.045 0 0
0.05 0 0
0.055 0 0
0.06 0 0
0.065 0 0
0.07 0 0
0.075 0 0
0.08 0 0
0.085 0 0
0.09 0 0
0.095 0 0
0.1 0 0
0 0.005 0
0.005 0.005 0
0.01 0.005 0
0.015 0.005 0
0.02 0.005 0
0.025 0.005 0
0.03 0.005 0
0.035 0.005 0
0.04 0.005 0
0.045 0.005 0
0.05 0.005 0
0.055 0.005 0
0.06 0.005 0
0.065 0.005 0
0.07 0.005 0
0.075 0.005 0
0.08 0.005 0
0.085 0.005 0
0.09 0.005 0
0.095 0.005 0
0.1 0.005 0
0 0.01 0
0.005 0.01 0
0.01 0.01 0
0.015 0.01 0
0.02 0.01 0
0.025 0.01 0
0.03 0.01 0
0.035 0.01 0
0.04 0.01 0
0.045 0.01 0
0.05 0.01 0
0.055 0.01 0
0.06 0.01 0
0.065 0.01 0
0.07 0.01 0
0.075 0.01 0
0.08 0.01 0
0.085 0.01 0
0.09 0.01 0
0.095 0.01 0
0.1 0.01 0
0 0.015 0
0.005 0.015 0
0.01 0.015 0
0.015 0.015 0
0.02 0.015 0
0.025 0.015 0
0.03 0.015 0
0.035 0.015 0
0.04 0.015 0
0.045 0.015 0
0.05 0.015 0
0.055 0.015 0
0.06 0.015 0
0.065 0.015 0
0.07 0.015 0
0.075 0.015 0
0.08 0.015 0
0.085 0.015 0
0.09 0.015 0
0.095 0.015 0
0.1 0.015 0
0 0.02 0
0.005 0.02 0
0.01 0.02 0
0.015 0.02 0
0.02 0.02 0
0.025 0.02 0
0.03 0.02 0
0.035 0.02 0
0.04 0.02 0
0.045 0.02 0
0.05 0.02 0
0.055 0.02 0
0.06 0.02 0
0.065 0.02 0
0.07 0.02 0
0.075 0.02 0
0.08 0.02 0
0.085 0.02 0
0.09 0.02 0
0.095 0.02 0
0.1 0.02 0
0 0.025 0
0.005 0.025 0
0.01 0.025 0
0.015 0.025 0
0.02 0.025 0
0.025 0.025 0
0.03 0.025 0
0.035 0.025 0
0.04 0.025 0
0.045 0.025 0
0.05 0.025 0
0.055 0.025 0
0.06 0.025 0
0.065 0.025 0
0.07 0.025 0
0.075 0.025 0
0.08 0.025 0
0.085 0.025 0
0.09 0.025 0
0.095 0.025 0
0.1 0.025 0
0 0.03 0
0.005 0.03 0
0.01 0.03 0
0.015 0.03 0
0.02 0.03 0
0.025 0.03 0
0.03 0.03 0
0.035 0.03 0
0.04 0.03 0
0.045 0.03 0
0.05 0.03 0
0.055 0.03 0
0.06 0.03 0
0.065 0.03 0
0.07 0.03 0
0.075 0.03 0
0.08 0.03 0
0.085 0.03 0
0.09 0.03 0
0.095 0.03 0
0.1 0.03 0
0 0 0.005
0.005 0 0.005
0.01 0 0.005
0.015 0 0.005
0.02 0 0.005
0.025 0 0.005
0.03 0 0.005
0.035 0 0.005
0.04 0 0.005
0.045 0 0.005
0.05 0 0.005
0.055 0 0.005
0.06 0 0.005
0.065 0 0.005
0.07 0 0.005
0.075 0 0.005
0.08 0 0.005
0.085 0 0.005
0.09 0 0.005
0.095 0 0.005
0.1 0 0.005
0 0.005 0.005
0.005 0.005 0.005
0.01 0.005 0.005
0.015 0.005 0.005
0.02 0.005 0.005
0.025 0.005 0.005
0.03 0.005 0.005
0.035 0.005 0.005
0.04 0.005 0.005
0.045 0.005 0.005
0.05 0.005 0.005
0.055 0.005 0.005
0.06 0.005 0.005
0.065 0.005 0.005
0.07 0.005 0.005
0.075 0.005 0.005
0.08 0.005 0.005
0.085 0.005 0.005
0.09 0.005 0.005
0.095 0.005 0.005
0.1 0.005 0.005
0 0.01 0.005
0.005 0.01 0.005
0.01 0.01 0.005
0.015 0.01 0.005
0.02 0.01 0.005
0.025 0.01 0.005
0.03 0.01 0.005
0.035 0.01 0.005
0.04 0.01 0.005
0.045 0.01 0.005
0.05 0.01 0.005
0.055 0.01 0.005
0.06 0.01 0.005
0.065 0.01 0.005
0.07 0.01 0.005
0.075 0.01 0.005
0.08 0.01 0.005
0.085 0.01 0.005
0.09 0.01 0.005
0.095 0.01 0.005
0.1 0.01 0.005
0 0.015 0.005
0.005 0.015 0.005
0.01 0.015 0.005
0.015 0.015 0.005
0.02 0.015 0.005
0.025 0.015 0.005
0.03 0.015 0.005
0.035 0.015 0.005
0.04 0.015 0.005
0.045 0.015 0.005
0.05 0.015 0.005
0.055 0.015 0.005
0.06 0.015 0.005
0.065 0.015 0.005
0.07 0.015 0.005
0.075 0.015 0.005
0.08 0.015 0.005
0.085 0.015 0.005
0.09 0.015 0.005
0.095 0.015 0.005
0.1 0.015 0.005
0 0.02 0.005
0.005 0.02 0.005
0.01 0.02 0.005
0.015 0.02 0.005
0.02 0.02 0.005
0.025 0.02 0.005
0.03 0.02 0.005
0.035 0.02 0.005
0.04 0.02 0.005
0.045 0.02 0.005
0.05 0.02 0.005
0.055 0.02 0.005
0.06 0.02 0.005
0.065 0.02 0.005
0.07 0.02 0.005
0.075 0.02 0.005
0.08 0.02 0.005
0.085 0.02 0.005
0.09 0.02 0.005
0.095 0.02 0.005
0.1 0.02 0.005
0 0.025 0.005
0.005 0.025 0.005
0.01 0.025 0.005
0.015 0.025 0.005
0.02 0.025 0.005
0.025 0.025 0.005
0.03 0.025 0.005
0.035 0.025 0.005
0.04 0.025 0.005
0.045 0.025 0.005
0.05 0.025 0.005
0.055 0.025 0.005
0.06 0.025 0.005
0.065 0.025 0.005
0.07 0.025 0.005
0.075 0.025 0.005
0.08 0.025 0.005
0.085 0.025 0.005
0.09 0.025 0.005
0.095 0.025 0.005
0.1 0.025 0.005
0 0.03 0.005
0.005 0.03 0.005
0.01 0.03 0.005
0.015 0.03 0.005
0.02 0.03 0.005
0.025 0.03 0.005
0.03 0.03 0.005
0.035 0.03 0.005
0.04 0.03 0.005
0.045 0.03 0.005
0.05 0.03 0.005
0.055 0.03 0.005
0.06 0.03 0.005
0.065 0.03 0.005
0.07 0.03 0.005
0.075 0.03 0.005
0.08 0.03 0.005
0.085 0.03 0.005
0.09 0.03 0.005
0.095 0.03 0.005
0.1 0.03 0.005
0 0 0.01
0.005 0 0.01
0.01 0 0.01
0.015 0 0.01
0.02 0 0.01
0.025 0 0.01
0.03 0 0.01
0.035 0 0.01
0.04 0 0.01
0.045 0 0.01
0.05 0 0.01
0.055 0 0.01
0.06 0 0.01
0.065 0 0.01
0.07 0 0.01
0.075 0 0.01
0.08 0 0.01
0.085 0 0.01
0.09 0 0.01
0.095 0 0.01
0.1 0 0.01
0 0.005 0.01
0.005 0.005 0.01
0.01 0.005 0.01
0.015 0.005 0.01
0.02 0.005 0.01
0.025 0.005 0.01
0.03 0.005 0.01
0.035 0.005 0.01
0.04 0.005 0.01
0.045 0.005 0.01
0.05 0.005 0.01
0.055 0.005 0.01
0.06 0.005 0.01
0.065 0.005 0.01
0.07 0.005 0.01
0.075 0.005 0.01
0.08 0.005 0.01
0.085 0.005 0.01
0.09 0.005 0.01
0.095 0.005 0.01
0.1 0.005 0.01
0 0.01 0.01
0.005 0.01 0.01
0.01 0.01 0.01
0.015 0.01 0.01
0.02 0.01 0.01
0.025 0.01 0.01
0.03 0.01 0.01
0.035 0.01 0.01
0.04 0.01 0.01
0.045 0.01 0.01
0.05 0.01 0.01
0.055 0.01 0.01
0.06 0.01 0.01
0.065 0.01 0.01
0.07 0.01 0.01
0.075 0.01 0.01
0.08 0.01 0.01
0.085 0.01 0.01
0.09 0.01 0.01
0.095 0.01 0.01
0.1 0.01 0.01
0 0.015 0.01
0.005 0.015 0.01
0.01 0.015 0.01
0.015 0.015 0.01
0.02 0.015 0.01
0.025 0.015 0.01
0.03 0.015 0.01
0.035 0.015 0.01
0.04 0.015 0.01
0.045 0.015 0.01
0.05 0.015 0.01
0.055 0.015 0.01
0.06 0.015 0.01
0.065 0.015 0.01
0.07 0.015 0.01
0.075 0.015 0.01
0.08 0.015 0.01
0.085 0.015 0.01
0.09 0.015 0.01
0.095 0.015 0.01
0.1 0.015 0.01
0 0.02 0.01
0.005 0.02 0.01
0.01 0.02 0.01
0.015 0.02 0.01
0.02 0.02 0.01
0.025 0.02 0.01
0.03 0.02 0.01
0.035 0.02 0.01
0.04 0.02 0.01
0.045 0.02 0.01
0.05 0.02 0.01
0.055 0.02 0.01
0.06 0.02 0.01
0.065 0.02 0.01
0.07 0.02 0.01
0.075 0.02 0.01
0.08 0.02 0.01
0.085 0.02 0.01
0.09 0.02 0.01
0.095 0.02 0.01
0.1 0.02 0.01
0 0.025 0.01
0.005 0.025 0.01
0.01 0.025 0.01
0.015 0.025 0.01
0.02 0.025 0.01
0.025 0.025 0.01
0.03 0.025 0.01
0.035 0.025 0.01
0.04 0.025 0.01
0.045 0.025 0.01
0.05 0.025 0.01
0.055 0.025 0.01
0.06 0.025 0.01
0.065 0.025 0.01
0.07 0.025 0.01
0.075 0.025 0.01
0.08 0.025 0.01
0.085 0.025 0.01
0.09 0.025 0.01
0.095 0.025 0.01
0.1 0.025 0.01
0 0.03 0.01
0.005 0.03 0.01
0.01 0.03 0.01
0.015 0.03 0.01
0.02 0.03 0.01
0.025 0.03 0.01
0.03 0.03 0.01
0.035 0.03 0.01
0.04 0.03 0.01
0.045 0.03 0.01
0.05 0.03 0.01
0.055 0.03 0.01
0.06 0.03 0.01
0.065 0.03 0.01
0.07 0.03 0.01
0.075 0.03 0.01
0.08 0.03 0.01
0.085 0.03 0.01
0.09 0.03 0.01
0.095 0.03 0.01
0.1 0.03 0.01
0 0 0.015
0.005 0 0.015
0.01 0 0.015
0.015 0 0.015
0.02 0 0.015
0.025 0 0.015
0.03 0 0.015
0.035 0 0.015
0.04 0 0.015
0.045 0 0.015
0.05 0 0.015
0.055 0 0.015
0.06 0 0.015
0.065 0 0.015
0.07 0 0.015
0.075 0 0.015
0.08 0 0.015
0.085 0 0.015
0.09 0 0.015
0.095 0 0.015
0.1 0 0.015
0 0.005 0.015
0.005 0.005 0.015
0.01 0.005 0.015
0.015 0.005 0.015
0.02 0.005 0.015
0.025 0.005 0.015
0.03 0.005 0.015
0.035 0.005 0.015
0.04 0.005 0.015
0.045 0.005 0.015
0.05 0.005 0.015
0.055 0.005 0.015
0.06 0.005 0.015
0.065 0.005 0.015
0.07 0.005 0.015
0.075 0.005 0.015
0.08 0.005 0.015
0.085 0.005 0.015
0.09 0.005 0.015
0.095 0.005 0.015
0.1 0.005 0.015
0 0.01 0.015
0.005 0.01 0.015
0.01 0.01 0.015
0.015 0.01 0.015
0.02 0.01 0.015
0.025 0.01 0.015
0.03 0.01 0.015
0.035 0.01 0.015
0.04 0.01 0.015
0.045 0.01 0.015
0.05 0.01 0.015
0.055 0.01 0.015
0.06 0.01 0.015
0.065 0.01 0.015
0.07 0.01 0.015
0.075 0.01 0.015
0.08 0.01 0.015
0.085 0.01 0.015
0.09 0.01 0.015
0.095 0.01 0.015
0.1 0.01 0.015
0 0.015 0.015
0.005 0.015 0.015
0.01 0.015 0.015
0.015 0.015 0.015
0.02 0.015 0.015
0.025 0.015 0.015
0.03 0.015 0.015
0.035 0.015 0.015
0.04 0.015 0.015
0.045 0.015 0.015
0.05 0.015 0.015
0.055 0.015 0.015
0.06 0.015 0.015
0.065 0.015 0.015
0.07 0.015 0.015
0.075 0.015 0.015
0.08 0.015 0.015
0.085 0.015 0.015
0.09 0.015 0.015
0.095 0.015 0.015
0.1 0.015 0.015
0 0.02 0.015
0.005 0.02 0.015
0.01 0.02 0.015
0.015 0.02 0.015
0.02 0.02 0.015
0.025 0.02 0.015
0.03 0.02 0.015
0.035 0.02 0.015
0.04 0.02 0.015
0.045 0.02 0.015
0.05 0.02 0.015
0.055 0.02 0.015
0.06 0.02 0.015
0.065 0.02 0.015
0.07 0.02 0.015
0.075 0.02 0.015
0.08 0.02 0.015
0.085 0.02 0.015
0.09 0.02 0.015
0.095 0.02 0.015
0.1 0.02 0.015
0 0.025 0.015
0.005 0.025 0.015
0.01 0.025 0.015
0.015 0.025 0.015
0.02 0.025 0.015
0.025 0.025 0.015
0.03 0.025 0.015
0.035 0.025 0.015
0.04 0.025 0.015
0.045 0.025 0.015
0.05 0.025 0.015
0.055 0.025 0.015
0.06 0.025 0.015
0.065 0.025 0.015
0.07 0.025 0.015
0.075 0.025 0.015
0.08 0.025 0.015
0.085 0.025 0.015
0.09 0.025 0.015
0.095 0.025 0.015
0.1 0.025 0.015
0 0.03 0.015
0.005 0.03 0.015
0.01 0.03 0.015
0.015 0.03 0.015
0.02 0.03 0.015
0.025 0.03 0.015
0.03 0.03 0.015
0.035 0.03 0.015
0.04 0.03 0.015
0.045 0.03 0.015
0.05 0.03 0.015
0.055 0.03 0.015
0.06 0.03 0.015
0.065 0.03 0.015
0.07 0.03 0.015
0.075 0.03 0.015
0.08 0.03 0.015
0.085 0.03 0.015
0.09 0.03 0.015
0.095 0.03 0.015
0.1 0.03 0.015
0 0 0.02
0.005 0 0.02
0.01 0 0.02
0.015 0 0.02
0.02 0 0.02
0.025 0 0.02
0.03 0 0.02
0.035 0 0.02
0.04 0 0.02
0.045 0 0.02
0.05 0 0.02
0.055 0 0.02
0.06 0 0.02
0.065 0 0.02
0.07 0 0.02
0.075 0 0.02
0.08 0 0.02
0.085 0 0.02
0.09 0 0.02
0.095 0 0.02
0.1 0 0.02
0 0.005 0.02
0.005 0.005 0.02
0.01 0.005 0.02
0.015 0.005 0.02
0.02 0.005 0.02
0.025 0.005 0.02
0.03 0.005 0.02
0.035 0.005 0.02
0.04 0.005 0.02
0.045 0.005 0.02
0.05 0.005 0.02
0.055 0.005 0.02
0.06 0.005 0.02
0.065 0.005 0.02
0.07 0.005 0.02
0.075 0.005 0.02
0.08 0.005 0.02
0.085 0.005 0.02
0.09 0.005 0.02
0.095 0.005 0.02
0.1 0.005 0.02
0 0.01 0.02
0.005 0.01 0.02
0.01 0.01 0.02
0.015 0.01 0.02
0.02 0.01 0.02
0.025 0.01 0.02
0.03 0.01 0.02
0.035 0.01 0.02
0.04 0.01 0.02
0.045 0.01 0.02
0.05 0.01 0.02
0.055 0.01 0.02
0.06 0.01 0.02
0.065 0.01 0.02
0.07 0.01 0.02
0.075 0.01 0.02
0.08 0.01 0.02
0.085 0.01 0.02
0.09 0.01 0.02
0.095 0.01 0.02
[...]
<PointData Vectors="Displacement">
<DataArray type="Float32" Name="Displacement" NumberOfComponents="3" format="ascii">
0 0 0
0.000677011 0.000175213 0.000175213
0.00124794 0.00022215 0.00022215
0.00182308 0.000243304 0.000243304
0.00241169 0.00024933 0.00024933
0.0030103 0.000250495 0.000250495
0.00361459 0.000250164 0.000250164
0.00422157 0.000249671 0.000249671
0.00482963 0.000249332 0.000249332
0.00543804 0.000249163 0.000249163
0.00604653 0.000249115 0.000249115
0.00665501 0.000249167 0.000249167
0.00726335 0.000249325 0.000249325
0.00787127 0.000249603 0.000249603
0.00847807 0.000249922 0.000249922
0.00908237 0.000249826 0.000249826
0.00968188 0.000247999 0.000247999
0.0102738 0.000240477 0.000240477
0.0108572 0.000221433 0.000221433
0.0114595 0.000151272 0.000151272
0.012 0.000100244 0.000100244
0 0 0
0.000624594 9.14706e-05 0.000176112
0.00121913 0.000145657 0.000225075
0.00180949 0.000162867 0.000244319
0.00240625 0.000167723 0.000249788
0.00300851 0.000168009 0.000250631
0.00361421 0.00016732 0.00025019
0.00422161 0.000166688 0.000249664
0.00482973 0.00016631 0.000249321
0.0054381 0.000166134 0.000249154
0.00604654 0.000166088 0.000249108
0.00665496 0.000166142 0.000249159
0.00726328 0.000166313 0.000249318
0.00787133 0.000166641 0.000249606
0.00847865 0.000167101 0.000249966
0.00908441 0.00016737 0.000249996
0.00968739 0.000166139 0.000248441
0.0102864 0.000160201 0.000241673
0.0108836 0.000139572 0.000223368
0.0114866 9.94545e-05 0.000148712
0.012 7.50899e-05 9.22882e-05
0 0 0
0.000617403 4.13037e-05 0.000180503
0.00120147 6.94789e-05 0.000228859
0.00179708 8.16404e-05 0.000246697
0.00239946 8.44547e-05 0.000250808
0.00300546 8.44775e-05 0.000251002
0.00361306 8.39202e-05 0.000250286
0.00422127 8.34641e-05 0.000249668
0.00482968 8.32012e-05 0.000249304
0.00543811 8.30816e-05 0.000249137
0.00604655 8.3051e-05 0.000249093
0.00665498 8.30882e-05 0.000249146
0.00726339 8.32059e-05 0.000249311
0.00787175 8.34369e-05 0.000249631
0.00847987 8.37818e-05 0.000250099
0.00908734 8.40388e-05 0.00025041
0.00969323 8.33939e-05 0.000249475
0.0102958 7.91514e-05 0.000243546
0.0108912 6.72696e-05 0.000225141
0.0114889 5.00043e-05 0.000144878
0.012 4.02446e-05 8.22677e-05
0 0 0
0.000615539 -6.02956e-20 0.000181753
0.00119741 1.20129e-21 0.000230623
0.00179236 1.07943e-19 0.000247724
0.00239662 1.85907e-19 0.000251323
0.00300406 3.29181e-19 0.000251193
0.00361248 1.97913e-19 0.000250341
0.00422108 1.69839e-19 0.000249675
0.00482963 2.26575e-19 0.000249298
0.00543811 -7.00548e-20 0.000249129
0.00604655 2.14921e-19 0.000249087
0.00665499 5.34993e-20 0.00024914
0.00726346 -1.89691e-19 0.00024931
0.00787197 -6.73957e-20 0.000249648
0.00848046 4.55352e-20 0.000250171
0.00908863 4.25458e-21 0.000250623
0.00969557 -3.0322e-19 0.000249946
0.0102984 -2.67547e-19 0.000244331
0.0108924 -5.91147e-19 0.00022544
0.0114887 -7.14387e-19 0.000143205
0.012 -7.50316e-19 7.8982e-05
0 0 0
0.000617403 -4.13037e-05 0.000180503
0.00120147 -6.94789e-05 0.000228859
0.00179708 -8.16404e-05 0.000246697
0.00239946 -8.44547e-05 0.000250808
0.00300546 -8.44775e-05 0.000251002
0.00361306 -8.39202e-05 0.000250286
0.00422127 -8.34641e-05 0.000249668
0.00482968 -8.32012e-05 0.000249304
0.00543811 -8.30816e-05 0.000249137
0.00604655 -8.3051e-05 0.000249093
0.00665498 -8.30882e-05 0.000249146
0.00726339 -8.32059e-05 0.000249311
0.00787175 -8.34369e-05 0.000249631
0.00847987 -8.37818e-05 0.000250099
0.00908734 -8.40388e-05 0.00025041
0.00969323 -8.33939e-05 0.000249475
0.0102958 -7.91514e-05 0.000243546
0.0108912 -6.72696e-05 0.000225141
0.0114889 -5.00043e-05 0.000144878
0.012 -4.02446e-05 8.22677e-05
0 0 0
0.000624594 -9.14706e-05 0.000176112
0.00121913 -0.000145657 0.000225075
0.00180949 -0.000162867 0.000244319
0.00240625 -0.000167723 0.000249788
0.00300851 -0.000168009 0.000250631
0.00361421 -0.00016732 0.00025019
0.00422161 -0.000166688 0.000249664
0.00482973 -0.00016631 0.000249321
0.0054381 -0.000166134 0.000249154
0.00604654 -0.000166088 0.000249108
0.00665496 -0.000166142 0.000249159
0.00726328 -0.000166313 0.000249318
0.00787133 -0.000166641 0.000249606
0.00847865 -0.000167101 0.000249966
0.00908441 -0.00016737 0.000249996
0.00968739 -0.000166139 0.000248441
0.0102864 -0.000160201 0.000241673
0.0108836 -0.000139572 0.000223368
0.0114866 -9.94545e-05 0.000148712
0.012 -7.50899e-05 9.22882e-05
0 0 0
0.000677011 -0.000175213 0.000175213
0.00124794 -0.00022215 0.00022215
0.00182308 -0.000243304 0.000243304
0.00241169 -0.00024933 0.00024933
0.0030103 -0.000250495 0.000250495
0.00361459 -0.000250164 0.000250164
0.00422157 -0.000249671 0.000249671
0.00482963 -0.000249332 0.000249332
0.00543804 -0.000249163 0.000249163
0.00604653 -0.000249115 0.000249115
0.00665501 -0.000249167 0.000249167
0.00726335 -0.000249325 0.000249325
0.00787127 -0.000249603 0.000249603
0.00847807 -0.000249922 0.000249922
0.00908237 -0.000249826 0.000249826
0.00968188 -0.000247999 0.000247999
0.0102738 -0.000240477 0.000240477
0.0108572 -0.000221433 0.000221433
0.0114595 -0.000151272 0.000151272
0.012 -0.000100244 0.000100244
0 0 0
0.000624594 0.000176112 9.14706e-05
0.00121913 0.000225075 0.000145657
0.00180949 0.000244319 0.000162867
0.00240625 0.000249788 0.000167723
0.00300851 0.000250631 0.000168009
0.00361421 0.00025019 0.00016732
0.00422161 0.000249664 0.000166688
0.00482973 0.000249321 0.00016631
0.0054381 0.000249154 0.000166134
0.00604654 0.000249108 0.000166088
0.00665496 0.000249159 0.000166142
0.00726328 0.000249318 0.000166313
0.00787133 0.000249606 0.000166641
0.00847865 0.000249966 0.000167101
0.00908441 0.000249996 0.00016737
0.00968739 0.000248441 0.000166139
0.0102864 0.000241673 0.000160201
0.0108836 0.000223368 0.000139572
0.0114866 0.000148712 9.94545e-05
0.012 9.22882e-05 7.50899e-05
0 0 0
0.00057095 9.0976e-05 9.0976e-05
0.00119045 0.000145342 0.000145342
0.00179661 0.000162697 0.000162697
0.00240115 0.000167595 0.000167595
0.0030069 0.000167954 0.000167954
0.0036139 0.000167297 0.000167297
0.00422168 0.000166681 0.000166681
0.00482984 0.000166309 0.000166309
0.00543816 0.000166135 0.000166135
0.00604654 0.000166089 0.000166089
0.00665491 0.000166142 0.000166142
0.00726322 0.000166311 0.000166311
0.00787136 0.000166632 0.000166632
0.00847915 0.000167078 0.000167078
0.00908629 0.00016732 0.00016732
0.00969261 0.000166061 0.000166061
0.0102989 0.000160164 0.000160164
0.0109112 0.000139558 0.000139558
0.0115159 9.92372e-05 9.92372e-05
0.012 7.43801e-05 7.43801e-05
0 0 0
0.000563394 4.03686e-05 9.27494e-05
0.00117296 6.85821e-05 0.000147547
0.00178462 8.10575e-05 0.000164052
0.00239476 8.41652e-05 0.000168209
0.00300405 8.43559e-05 0.000168169
0.00361284 8.38805e-05 0.00016735
0.00422137 8.34557e-05 0.000166681
0.00482979 8.32027e-05 0.000166298
0.00543818 8.3085e-05 0.000166124
0.00604655 8.30543e-05 0.00016608
0.00665492 8.30905e-05 0.000166134
0.00726331 8.32047e-05 0.000166306
0.00787174 8.34236e-05 0.000166646
0.00848028 8.37353e-05 0.000167157
0.00908905 8.39185e-05 0.000167574
0.00969824 8.31493e-05 0.000166682
0.0103084 7.87827e-05 0.000161258
0.0109199 6.70997e-05 0.000140137
0.0115194 5.05595e-05 9.67042e-05
0.012 4.12267e-05 6.89967e-05
0 0 0
0.000561269 2.09566e-20 9.36119e-05
0.00116895 3.76815e-21 0.000148567
0.00178011 1.61982e-19 0.00016476
0.00239207 3.03986e-19 0.00016855
0.00300274 2.28598e-19 0.000168299
0.0036123 3.41096e-19 0.000167387
0.00422119 3.84939e-19 0.000166685
0.00482975 5.05656e-19 0.000166294
0.00543817 2.60655e-19 0.000166119
0.00604655 4.63339e-19 0.000166075
0.00665494 4.25494e-19 0.00016613
0.00726338 1.20064e-19 0.000166305
0.00787195 3.70628e-19 0.000166657
0.00848083 5.5602e-19 0.000167206
0.00909026 2.27548e-19 0.000167719
0.0097005 -1.98046e-19 0.000167009
0.0103111 8.92476e-20 0.000161735
0.0109216 -2.38406e-19 0.000140227
0.0115198 -4.3573e-19 9.55492e-05
0.012 -4.58683e-19 6.68768e-05
0 0 0
0.000563394 -4.03686e-05 9.27494e-05
0.00117296 -6.85821e-05 0.000147547
0.00178462 -8.10575e-05 0.000164052
0.00239476 -8.41652e-05 0.000168209
0.00300405 -8.43559e-05 0.000168169
0.00361284 -8.38805e-05 0.00016735
0.00422137 -8.34557e-05 0.000166681
0.00482979 -8.32027e-05 0.000166298
0.00543818 -8.3085e-05 0.000166124
0.00604655 -8.30543e-05 0.00016608
0.00665492 -8.30905e-05 0.000166134
0.00726331 -8.32047e-05 0.000166306
0.00787174 -8.34236e-05 0.000166646
0.00848028 -8.37353e-05 0.000167157
0.00908905 -8.39185e-05 0.000167574
0.00969824 -8.31493e-05 0.000166682
0.0103084 -7.87827e-05 0.000161258
0.0109199 -6.70997e-05 0.000140137
0.0115194 -5.05595e-05 9.67042e-05
0.012 -4.12267e-05 6.89967e-05
0 0 0
0.00057095 -9.0976e-05 9.0976e-05
0.00119045 -0.000145342 0.000145342
0.00179661 -0.000162697 0.000162697
0.00240115 -0.000167595 0.000167595
0.0030069 -0.000167954 0.000167954
0.0036139 -0.000167297 0.000167297
0.00422168 -0.000166681 0.000166681
0.00482984 -0.000166309 0.000166309
0.00543816 -0.000166135 0.000166135
0.00604654 -0.000166089 0.000166089
0.00665491 -0.000166142 0.000166142
0.00726322 -0.000166311 0.000166311
0.00787136 -0.000166632 0.000166632
0.00847915 -0.000167078 0.000167078
0.00908629 -0.00016732 0.00016732
0.00969261 -0.000166061 0.000166061
0.0102989 -0.000160164 0.000160164
0.0109112 -0.000139558 0.000139558
0.0115159 -9.92372e-05 9.92372e-05
0.012 -7.43801e-05 7.43801e-05
0 0 0
0.000624594 -0.000176112 9.14706e-05
0.00121913 -0.000225075 0.000145657
0.00180949 -0.000244319 0.000162867
0.00240625 -0.000249788 0.000167723
0.00300851 -0.000250631 0.000168009
0.00361421 -0.00025019 0.00016732
0.00422161 -0.000249664 0.000166688
0.00482973 -0.000249321 0.00016631
0.0054381 -0.000249154 0.000166134
0.00604654 -0.000249108 0.000166088
0.00665496 -0.000249159 0.000166142
0.00726328 -0.000249318 0.000166313
0.00787133 -0.000249606 0.000166641
0.00847865 -0.000249966 0.000167101
0.00908441 -0.000249996 0.00016737
0.00968739 -0.000248441 0.000166139
0.0102864 -0.000241673 0.000160201
0.0108836 -0.000223368 0.000139572
0.0114866 -0.000148712 9.94545e-05
0.012 -9.22882e-05 7.50899e-05
0 0 0
0.000617403 0.000180503 4.13037e-05
0.00120147 0.000228859 6.94789e-05
0.00179708 0.000246697 8.16404e-05
0.00239946 0.000250808 8.44547e-05
0.00300546 0.000251002 8.44775e-05
0.00361306 0.000250286 8.39202e-05
0.00422127 0.000249668 8.34641e-05
0.00482968 0.000249304 8.32012e-05
0.00543811 0.000249137 8.30816e-05
0.00604655 0.000249093 8.3051e-05
0.00665498 0.000249146 8.30882e-05
0.00726339 0.000249311 8.32059e-05
0.00787175 0.000249631 8.34369e-05
0.00847987 0.000250099 8.37818e-05
0.00908734 0.00025041 8.40388e-05
0.00969323 0.000249475 8.33939e-05
0.0102958 0.000243546 7.91514e-05
0.0108912 0.000225141 6.72696e-05
0.0114889 0.000144878 5.00043e-05
0.012 8.22677e-05 4.02446e-05
0 0 0
0.000563394 9.27494e-05 4.03686e-05
0.00117296 0.000147547 6.85821e-05
0.00178462 0.000164052 8.10575e-05
0.00239476 0.000168209 8.41652e-05
0.00300405 0.000168169 8.43559e-05
0.00361284 0.00016735 8.38805e-05
0.00422137 0.000166681 8.34557e-05
0.00482979 0.000166298 8.32027e-05
0.00543818 0.000166124 8.3085e-05
0.00604655 0.00016608 8.30543e-05
0.00665492 0.000166134 8.30905e-05
0.00726331 0.000166306 8.32047e-05
0.00787174 0.000166646 8.34236e-05
0.00848028 0.000167157 8.37353e-05
0.00908905 0.000167574 8.39185e-05
0.00969824 0.000166682 8.31493e-05
0.0103084 0.000161258 7.87827e-05
0.0109199 0.000140137 6.70997e-05
0.0115194 9.67042e-05 5.05595e-05
0.012 6.89967e-05 4.12267e-05
0 0 0
0.000556182 4.10549e-05 4.10549e-05
0.00115525 6.93722e-05 6.93722e-05
0.00177249 8.16164e-05 8.16164e-05
0.00238836 8.44283e-05 8.44283e-05
0.00300124 8.44491e-05 8.44491e-05
0.00361181 8.39025e-05 8.39025e-05
0.00422108 8.34552e-05 8.34552e-05
0.00482975 8.31977e-05 8.31977e-05
0.00543819 8.30804e-05 8.30804e-05
0.00604656 8.30504e-05 8.30504e-05
0.00665493 8.30868e-05 8.30868e-05
0.0072634 8.32023e-05 8.32023e-05
0.00787211 8.34293e-05 8.34293e-05
0.0084814 8.37703e-05 8.37703e-05
0.00909182 8.4033e-05 8.4033e-05
0.009704 8.34213e-05 8.34213e-05
0.0103182 7.9175e-05 7.9175e-05
0.0109285 6.71656e-05 6.71656e-05
0.0115221 4.95318e-05 4.95318e-05
0.012 3.91871e-05 3.91871e-05
0 0 0
0.000554157 8.39023e-20 4.14004e-05
0.00115123 1.02503e-19 6.98163e-05
0.0017679 3.21274e-19 8.19341e-05
0.00238566 4.707e-19 8.45908e-05
0.00299994 4.49212e-19 8.45112e-05
0.00361128 6.18198e-19 8.392e-05
0.0042209 7.1579e-19 8.3457e-05
0.00482971 6.49371e-19 8.31955e-05
0.00543819 5.64614e-19 8.30779e-05
0.00604656 8.83878e-19 8.30483e-05
0.00665495 7.39621e-19 8.30849e-05
0.00726346 6.87242e-19 8.32017e-05
0.00787232 9.68821e-19 8.34346e-05
0.00848195 8.23317e-19 8.37945e-05
0.00909305 5.74001e-19 8.41043e-05
0.00970633 3.19205e-19 8.35731e-05
0.010321 2.69803e-19 7.93699e-05
0.0109301 1.35005e-19 6.71579e-05
0.0115222 3.39713e-20 4.89991e-05
0.012 -1.41553e-19 3.82334e-05
0 0 0
0.000556182 -4.10549e-05 4.10549e-05
0.00115525 -6.93722e-05 6.93722e-05
0.00177249 -8.16164e-05 8.16164e-05
0.00238836 -8.44283e-05 8.44283e-05
0.00300124 -8.44491e-05 8.44491e-05
0.00361181 -8.39025e-05 8.39025e-05
0.00422108 -8.34552e-05 8.34552e-05
0.00482975 -8.31977e-05 8.31977e-05
0.00543819 -8.30804e-05 8.30804e-05
0.00604656 -8.30504e-05 8.30504e-05
0.00665493 -8.30868e-05 8.30868e-05
0.0072634 -8.32023e-05 8.32023e-05
0.00787211 -8.34293e-05 8.34293e-05
0.0084814 -8.37703e-05 8.37703e-05
0.00909182 -8.4033e-05 8.4033e-05
0.009704 -8.34213e-05 8.34213e-05
0.0103182 -7.9175e-05 7.9175e-05
0.0109285 -6.71656e-05 6.71656e-05
0.0115221 -4.95318e-05 4.95318e-05
0.012 -3.91871e-05 3.91871e-05
0 0 0
0.000563394 -9.27494e-05 4.03686e-05
0.00117296 -0.000147547 6.85821e-05
0.00178462 -0.000164052 8.10575e-05
0.00239476 -0.000168209 8.41652e-05
0.00300405 -0.000168169 8.43559e-05
0.00361284 -0.00016735 8.38805e-05
0.00422137 -0.000166681 8.34557e-05
0.00482979 -0.000166298 8.32027e-05
0.00543818 -0.000166124 8.3085e-05
0.00604655 -0.00016608 8.30543e-05
0.00665492 -0.000166134 8.30905e-05
0.00726331 -0.000166306 8.32047e-05
0.00787174 -0.000166646 8.34236e-05
0.00848028 -0.000167157 8.37353e-05
0.00908905 -0.000167574 8.39185e-05
0.00969824 -0.000166682 8.31493e-05
0.0103084 -0.000161258 7.87827e-05
0.0109199 -0.000140137 6.70997e-05
0.0115194 -9.67042e-05 5.05595e-05
0.012 -6.89967e-05 4.12267e-05
0 0 0
0.000617403 -0.000180503 4.13037e-05
0.00120147 -0.000228859 6.94789e-05
0.00179708 -0.000246697 8.16404e-05
0.00239946 -0.000250808 8.44547e-05
0.00300546 -0.000251002 8.44775e-05
0.00361306 -0.000250286 8.39202e-05
0.00422127 -0.000249668 8.34641e-05
0.00482968 -0.000249304 8.32012e-05
0.00543811 -0.000249137 8.30816e-05
0.00604655 -0.000249093 8.3051e-05
0.00665498 -0.000249146 8.30882e-05
0.00726339 -0.000249311 8.32059e-05
0.00787175 -0.000249631 8.34369e-05
0.00847987 -0.000250099 8.37818e-05
0.00908734 -0.00025041 8.40388e-05
0.00969323 -0.000249475 8.33939e-05
0.0102958 -0.000243546 7.91514e-05
0.0108912 -0.000225141 6.72696e-05
0.0114889 -0.000144878 5.00043e-05
0.012 -8.22677e-05 4.02446e-05
0 0 0
0.000615539 0.000181753 4.82664e-20
0.00119741 0.000230623 -1.24177e-21
0.00179236 0.000247724 1.59288e-20
0.00239662 0.000251323 -2.97601e-20
0.00300406 0.000251193 -1.81699e-19
0.00361248 0.000250341 -2.30472e-19
0.00422108 0.000249675 -3.92625e-19
0.00482963 0.000249298 -5.1695e-19
0.00543811 0.000249129 -6.52196e-19
0.00604655 0.000249087 -6.69001e-19
0.00665499 0.00024914 -9.02147e-19
0.00726346 0.00024931 -1.13123e-18
0.00787197 0.000249648 -9.01618e-19
0.00848046 0.000250171 -2.04297e-18
0.00908863 0.000250623 -1.96602e-18
0.00969557 0.000249946 -1.59465e-18
0.0102984 0.000244331 -2.16277e-18
0.0108924 0.00022544 -2.57324e-18
0.0114887 0.000143205 -2.52604e-18
0.012 7.8982e-05 -1.58045e-18
0 0 0
0.000561269 9.36119e-05 1.28097e-20
0.00116895 0.000148567 -1.00308e-19
0.00178011 0.00016476 -1.26257e-19
0.00239207 0.00016855 -1.4912e-19
0.00300274 0.000168299 -3.04816e-19
0.0036123 0.000167387 -4.83935e-19
0.00422119 0.000166685 -5.73851e-19
0.00482975 0.000166294 -6.8485e-19
0.00543817 0.000166119 -9.51526e-19
0.00604655 0.000166075 -7.97965e-19
0.00665494 0.00016613 -1.38919e-18
0.00726338 0.000166305 -1.5867e-18
0.00787195 0.000166657 -1.35365e-18
0.00848083 0.000167206 -2.29236e-18
0.00909026 0.000167719 -2.29788e-18
0.0097005 0.000167009 -2.0184e-18
0.0103111 0.000161735 -2.45509e-18
0.0109216 0.000140227 -2.94225e-18
0.0115198 9.55492e-05 -2.64294e-18
0.012 6.68768e-05 -2.78582e-18
0 0 0
0.000554157 4.14004e-05 2.308e-21
0.00115123 6.98163e-05 -1.28842e-19
0.0017679 8.19341e-05 -1.98394e-19
0.00238566 8.45908e-05 -2.91063e-19
0.00299994 8.45112e-05 -5.37715e-19
0.00361128 8.392e-05 -7.80659e-19
0.0042209 8.3457e-05 -8.33509e-19
0.00482971 8.31955e-05 -1.02243e-18
0.00543819 8.30779e-05 -1.30513e-18
0.00604656 8.30483e-05 -1.22935e-18
0.00665495 8.30849e-05 -1.58195e-18
0.00726346 8.32017e-05 -2.1659e-18
0.00787232 8.34346e-05 -1.81253e-18
0.00848195 8.37945e-05 -2.80647e-18
0.00909305 8.41043e-05 -2.673e-18
0.00970633 8.35731e-05 -2.4555e-18
0.010321 7.93699e-05 -2.87951e-18
0.0109301 6.71579e-05 -3.3324e-18
0.0115222 4.89991e-05 -3.16697e-18
0.012 3.82334e-05 -2.95667e-18
0 0 0
0.000552153 9.80648e-20 -3.70362e-20
0.0011472 1.4137e-19 -1.36966e-19
0.00176328 4.84996e-19 -3.68258e-19
0.00238293 6.14672e-19 -4.41786e-19
0.00299863 6.36459e-19 -7.47542e-19
0.00361075 8.05222e-19 -8.53829e-19
0.00422073 8.23283e-19 -1.11576e-18
0.00482967 9.67017e-19 -1.32671e-18
0.00543819 8.47954e-19 -1.51188e-18
0.00604657 1.23284e-18 -1.67815e-18
0.00665496 1.0522e-18 -2.07866e-18
0.00726352 1.09104e-18 -2.54522e-18
0.00787252 1.06319e-18 -2.21216e-18
0.00848249 9.45092e-19 -3.09344e-18
0.00909429 9.5467e-19 -3.10324e-18
0.00970869 7.38111e-19 -2.93147e-18
0.0103238 7.39233e-19 -3.16473e-18
0.0109316 4.05715e-19 -3.54487e-18
0.0115222 2.24602e-19 -3.49303e-18
0.012 3.78586e-19 -3.39441e-18
0 0 0
0.000554157 -4.14004e-05 -1.49739e-19
0.00115123 -6.98163e-05 -1.74495e-19
0.0017679 -8.19341e-05 -4.7584e-19
0.00238566 -8.45908e-05 -6.11779e-19
0.00299994 -8.45112e-05 -1.02414e-18
0.00361128 -8.392e-05 -1.20859e-18
0.0042209 -8.3457e-05 -1.36908e-18
0.00482971 -8.31955e-05 -1.6189e-18
0.00543819 -8.30779e-05 -1.8327e-18
0.00604656 -8.30483e-05 -1.83281e-18
0.00665495 -8.30849e-05 -2.60531e-18
0.00726346 -8.32017e-05 -2.9201e-18
0.00787232 -8.34346e-05 -2.61008e-18
0.00848195 -8.37945e-05 -3.49437e-18
0.00909305 -8.41043e-05 -3.44078e-18
0.00970633 -8.35731e-05 -3.19397e-18
0.010321 -7.93699e-05 -3.82181e-18
0.0109301 -6.71579e-05 -3.8004e-18
0.0115222 -4.89991e-05 -4.04408e-18
0.012 -3.82334e-05 -4.13441e-18
0 0 0
0.000561269 -9.36119e-05 -1.27745e-19
0.00116895 -0.000148567 -3.26013e-19
0.00178011 -0.00016476 -5.57767e-19
0.00239207 -0.00016855 -8.36007e-19
0.00300274 -0.000168299 -1.167e-18
0.0036123 -0.000167387 -1.42265e-18
0.00422119 -0.000166685 -1.69635e-18
0.00482975 -0.000166294 -1.9318e-18
0.00543817 -0.000166119 -2.03438e-18
0.00604655 -0.000166075 -2.33042e-18
0.00665494 -0.00016613 -2.85852e-18
0.00726338 -0.000166305 -3.3444e-18
0.00787195 -0.000166657 -3.18319e-18
0.00848083 -0.000167206 -3.9762e-18
0.00909026 -0.000167719 -3.99037e-18
0.0097005 -0.000167009 -3.59614e-18
0.0103111 -0.000161735 -4.22112e-18
0.0109216 -0.000140227 -4.1637e-18
0.0115198 -9.55492e-05 -4.53901e-18
0.012 -6.68768e-05 -4.77374e-18
0 0 0
0.000615539 -0.000181753 -1.4856e-19
0.00119741 -0.000230623 -3.45146e-19
0.00179236 -0.000247724 -6.46177e-19
0.00239662 -0.000251323 -8.56495e-19
0.00300406 -0.000251193 -1.28517e-18
0.00361248 -0.000250341 -1.65295e-18
0.00422108 -0.000249675 -1.84507e-18
0.00482963 -0.000249298 -2.0508e-18
0.00543811 -0.000249129 -2.6209e-18
0.00604655 -0.000249087 -2.65923e-18
0.00665499 -0.00024914 -3.12108e-18
0.00726346 -0.00024931 -3.96749e-18
0.00787197 -0.000249648 -3.78388e-18
0.00848046 -0.000250171 -4.126e-18
0.00908863 -0.000250623 -4.22501e-18
0.00969557 -0.000249946 -4.13438e-18
0.0102984 -0.000244331 -4.42814e-18
0.0108924 -0.00022544 -4.7058e-18
0.0114887 -0.000143205 -4.72547e-18
0.012 -7.8982e-05 -5.60783e-18
0 0 0
0.000617403 0.000180503 -4.13037e-05
0.00120147 0.000228859 -6.94789e-05