<?xml version="1.0"?>
<VTKFile type="UnstructuredGrid" version="0.1" byte_order="LittleEndian">
<UnstructuredGrid>
<Piece NumberOfPoints="1029" NumberOfCells="720">
<Points>
<DataArray type="Float32" NumberOfComponents="3" format="ascii">
0 0 0
0.005 0 0
0.01 0 0
0.015 0 0
0.02 0 0
0.025 0 0
0.03 0 0
0.035 0 0
0.04 0 0
0.045 0 0
0.05 0 0
0.055 0 0
0.06 0 0
0.065 0 0
0.07 0 0
0.075 0 0
0.08 0 0
0.085 0 0
0.09 0 0
0.095 0 0
0.1 0 0
0 0.005 0
0.005 0.005 0
0.01 0.005 0
0.015 0.005 0
0.02 0.005 0
0.025 0.005 0
0.03 0.005 0
0.035 0.005 0
0.04 0.005 0
0.045 0.005 0
0.05 0.005 0
0.055 0.005 0
0.06 0.005 0
0.065 0.005 0
0.07 0.005 0
0.075 0.005 0
0.08 0.005 0
0.085 0.005 0
0.09 0.005 0
0.095 0.005 0
0.1 0.005 0
0 0.01 0
0.005 0.01 0
0.01 0.01 0
0.015 0.01 0
0.02 0.01 0
0.025 0.01 0
0.03 0.01 0
0.035 0.01 0
0.04 0.01 0
0.045 0.01 0
0.05 0.01 0
0.055 0.01 0
0.06 0.01 0
0.065 0.01 0
0.07 0.01 0
0.075 0.01 0
0.08 0.01 0
0.085 0.01 0
0.09 0.01 0
0.095 0.01 0
0.1 0.01 0
0 0.015 0
0.005 0.015 0
0.01 0.015 0
0.015 0.015 0
0.02 0.015 0
0.025 0.015 0
0.03 0.015 0
0.035 0.015 0
0.04 0.015 0
0.045 0.015 0
0.05 0.015 0
0.055 0.015 0
0.06 0.015 0
0.065 0.015 0
0.07 0.015 0
0.075 0.015 0
0.08 0.015 0
0.085 0.015 0
0.09 0.015 0
0.095 0.015 0
0.1 0.015 0
0 0.02 0
0.005 0.02 0
0.01 0.02 0
0.015 0.02 0
0.02 0.02 0
0.025 0.02 0
0.03 0.02 0
0.035 0.02 0
0.04 0.02 0
0.045 0.02 0
0.05 0.02 0
0.055 0.02 0
0.06 0.02 0
0.065 0.02 0
0.07 0.02 0
0.075 0.02 0
0.08 0.02 0
0.085 0.02 0
0.09 0.02 0
0.095 0.02 0
0.1 0.02 0
0 0.025 0
0.005 0.025 0
0.01 0.025 0
0.015 0.025 0
0.02 0.025 0
0.025 0.025 0
0.03 0.025 0
0.035 0.025 0
0.04 0.025 0
0.045 0.025 0
0.05 0.025 0
0.055 0.025 0
0.06 0.025 0
0.065 0.025 0
0.07 0.025 0
0.075 0.025 0
0.08 0.025 0
0.085 0.025 0
0.09 0.025 0
0.095 0.025 0
0.1 0.025 0
0 0.03 0
0.005 0.03 0
0.01 0.03 0
0.015 0.03 0
0.02 0.03 0
0.025 0.03 0
0.03 0.03 0
0.035 0.03 0
0.04 0.03 0
0.045 0.03 0
0.05 0.03 0
0.055 0.03 0
0.06 0.03 0
0.065 0.03 0
0.07 0.03 0
0.075 0.03 0
0.08 0.03 0
0.085 0.03 0
0.09 0.03 0
0.095 0.03 0
0.1 0.03 0
0 0 0.005
0.005 0 0.005
0.01 0 0.005
0.015 0 0.005
0.02 0 0.005
0.025 0 0.005
0.03 0 0.005
0.035 0 0.005
0.04 0 0.005
0.045 0 0.005
0.05 0 0.005
0.055 0 0.005
0.06 0 0.005
0.065 0 0.005
0.07 0 0.005
0.075 0 0.005
0.08 0 0.005
0.085 0 0.005
0.09 0 0.005
0.095 0 0.005
0.1 0 0.005
0 0.005 0.005
0.005 0.005 0.005
0.01 0.005 0.005
0.015 0.005 0.005
0.02 0.005 0.005
0.025 0.005 0.005
0.03 0.005 0.005
0.035 0.005 0.005
0.04 0.005 0.005
0.045 0.005 0.005
0.05 0.005 0.005
0.055 0.005 0.005
0.06 0.005 0.005
0.065 0.005 0.005
0.07 0.005 0.005
0.075 0.005 0.005
0.08 0.005 0.005
0.085 0.005 0.005
0.09 0.005 0.005
0.095 0.005 0.005
0.1 0.005 0.005
0 0.01 0.005
0.005 0.01 0.005
0.01 0.01 0.005
0.015 0.01 0.005
0.02 0.01 0.005
0.025 0.01 0.005
0.03 0.01 0.005
0.035 0.01 0.005
0.04 0.01 0.005
0.045 0.01 0.005
0.05 0.01 0.005
0.055 0.01 0.005
0.06 0.01 0.005
0.065 0.01 0.005
0.07 0.01 0.005
0.075 0.01 0.005
0.08 0.01 0.005
0.085 0.01 0.005
0.09 0.01 0.005
0.095 0.01 0.005
0.1 0.01 0.005
0 0.015 0.005
0.005 0.015 0.005
0.01 0.015 0.005
0.015 0.015 0.005
0.02 0.015 0.005
0.025 0.015 0.005
0.03 0.015 0.005
0.035 0.015 0.005
0.04 0.015 0.005
0.045 0.015 0.005
0.05 0.015 0.005
0.055 0.015 0.005
0.06 0.015 0.005
0.065 0.015 0.005
0.07 0.015 0.005
0.075 0.015 0.005
0.08 0.015 0.005
0.085 0.015 0.005
0.09 0.015 0.005
0.095 0.015 0.005
0.1 0.015 0.005
0 0.02 0.005
0.005 0.02 0.005
0.01 0.02 0.005
0.015 0.02 0.005
0.02 0.02 0.005
0.025 0.02 0.005
0.03 0.02 0.005
0.035 0.02 0.005
0.04 0.02 0.005
0.045 0.02 0.005
0.05 0.02 0.005
0.055 0.02 0.005
0.06 0.02 0.005
0.065 0.02 0.005
0.07 0.02 0.005
0.075 0.02 0.005
0.08 0.02 0.005
0.085 0.02 0.005
0.09 0.02 0.005
0.095 0.02 0.005
0.1 0.02 0.005
0 0.025 0.005
0.005 0.025 0.005
0.01 0.025 0.005
0.015 0.025 0.005
0.02 0.025 0.005
0.025 0.025 0.005
0.03 0.025 0.005
0.035 0.025 0.005
0.04 0.025 0.005
0.045 0.025 0.005
0.05 0.025 0.005
0.055 0.025 0.005
0.06 0.025 0.005
0.065 0.025 0.005
0.07 0.025 0.005
0.075 0.025 0.005
0.08 0.025 0.005
0.085 0.025 0.005
0.09 0.025 0.005
0.095 0.025 0.005
0.1 0.025 0.005
0 0.03 0.005
0.005 0.03 0.005
0.01 0.03 0.005
0.015 0.03 0.005
0.02 0.03 0.005
0.025 0.03 0.005
0.03 0.03 0.005
0.035 0.03 0.005
0.04 0.03 0.005
0.045 0.03 0.005
0.05 0.03 0.005
0.055 0.03 0.005
0.06 0.03 0.005
0.065 0.03 0.005
0.07 0.03 0.005
0.075 0.03 0.005
0.08 0.03 0.005
0.085 0.03 0.005
0.09 0.03 0.005
0.095 0.03 0.005
0.1 0.03 0.005
0 0 0.01
0.005 0 0.01
0.01 0 0.01
0.015 0 0.01
0.02 0 0.01
0.025 0 0.01
0.03 0 0.01
0.035 0 0.01
0.04 0 0.01
0.045 0 0.01
0.05 0 0.01
0.055 0 0.01
0.06 0 0.01
0.065 0 0.01
0.07 0 0.01
0.075 0 0.01
0.08 0 0.01
0.085 0 0.01
0.09 0 0.01
0.095 0 0.01
0.1 0 0.01
0 0.005 0.01
0.005 0.005 0.01
0.01 0.005 0.01
0.015 0.005 0.01
0.02 0.005 0.01
0.025 0.005 0.01
0.03 0.005 0.01
0.035 0.005 0.01
0.04 0.005 0.01
0.045 0.005 0.01
0.05 0.005 0.01
0.055 0.005 0.01
0.06 0.005 0.01
0.065 0.005 0.01
0.07 0.005 0.01
0.075 0.005 0.01
0.08 0.005 0.01
0.085 0.005 0.01
0.09 0.005 0.01
0.095 0.005 0.01
0.1 0.005 0.01
0 0.01 0.01
0.005 0.01 0.01
0.01 0.01 0.01
0.015 0.01 0.01
0.02 0.01 0.01
0.025 0.01 0.01
0.03 0.01 0.01
0.035 0.01 0.01
0.04 0.01 0.01
0.045 0.01 0.01
0.05 0.01 0.01
0.055 0.01 0.01
0.06 0.01 0.01
0.065 0.01 0.01
0.07 0.01 0.01
0.075 0.01 0.01
0.08 0.01 0.01
0.085 0.01 0.01
0.09 0.01 0.01
0.095 0.01 0.01
0.1 0.01 0.01
0 0.015 0.01
0.005 0.015 0.01
0.01 0.015 0.01
0.015 0.015 0.01
0.02 0.015 0.01
0.025 0.015 0.01
0.03 0.015 0.01
0.035 0.015 0.01
0.04 0.015 0.01
0.045 0.015 0.01
0.05 0.015 0.01
0.055 0.015 0.01
0.06 0.015 0.01
0.065 0.015 0.01
0.07 0.015 0.01
0.075 0.015 0.01
0.08 0.015 0.01
0.085 0.015 0.01
0.09 0.015 0.01
0.095 0.015 0.01
0.1 0.015 0.01
0 0.02 0.01
0.005 0.02 0.01
0.01 0.02 0.01
0.015 0.02 0.01
0.02 0.02 0.01
0.025 0.02 0.01
0.03 0.02 0.01
0.035 0.02 0.01
0.04 0.02 0.01
0.045 0.02 0.01
0.05 0.02 0.01
0.055 0.02 0.01
0.06 0.02 0.01
0.065 0.02 0.01
0.07 0.02 0.01
0.075 0.02 0.01
0.08 0.02 0.01
0.085 0.02 0.01
0.09 0.02 0.01
0.095 0.02 0.01
0.1 0.02 0.01
0 0.025 0.01
0.005 0.025 0.01
0.01 0.025 0.01
0.015 0.025 0.01
0.02 0.025 0.01
0.025 0.025 0.01
0.03 0.025 0.01
0.035 0.025 0.01
0.04 0.025 0.01
0.045 0.025 0.01
0.05 0.025 0.01
0.055 0.025 0.01
0.06 0.025 0.01
0.065 0.025 0.01
0.07 0.025 0.01
0.075 0.025 0.01
0.08 0.025 0.01
0.085 0.025 0.01
0.09 0.025 0.01
0.095 0.025 0.01
0.1 0.025 0.01
0 0.03 0.01
0.005 0.03 0.01
0.01 0.03 0.01
0.015 0.03 0.01
0.02 0.03 0.01
0.025 0.03 0.01
0.03 0.03 0.01
0.035 0.03 0.01
0.04 0.03 0.01
0.045 0.03 0.01
0.05 0.03 0.01
0.055 0.03 0.01
0.06 0.03 0.01
0.065 0.03 0.01
0.07 0.03 0.01
0.075 0.03 0.01
0.08 0.03 0.01
0.085 0.03 0.01
0.09 0.03 0.01
0.095 0.03 0.01
0.1 0.03 0.01
0 0 0.015
0.005 0 0.015
0.01 0 0.015
0.015 0 0.015
0.02 0 0.015
0.025 0 0.015
0.03 0 0.015
0.035 0 0.015
0.04 0 0.015
0.045 0 0.015
0.05 0 0.015
0.055 0 0.015
0.06 0 0.015
0.065 0 0.015
0.07 0 0.015
0.075 0 0.015
0.08 0 0.015
0.085 0 0.015
0.09 0 0.015
0.095 0 0.015
0.1 0 0.015
0 0.005 0.015
0.005 0.005 0.015
0.01 0.005 0.015
0.015 0.005 0.015
0.02 0.005 0.015
0.025 0.005 0.015
0.03 0.005 0.015
0.035 0.005 0.015
0.04 0.005 0.015
0.045 0.005 0.015
0.05 0.005 0.015
0.055 0.005 0.015
0.06 0.005 0.015
0.065 0.005 0.015
0.07 0.005 0.015
0.075 0.005 0.015
0.08 0.005 0.015
0.085 0.005 0.015
0.09 0.005 0.015
0.095 0.005 0.015
0.1 0.005 0.015
0 0.01 0.015
0.005 0.01 0.015
0.01 0.01 0.015
0.015 0.01 0.015
0.02 0.01 0.015
0.025 0.01 0.015
0.03 0.01 0.015
0.035 0.01 0.015
0.04 0.01 0.015
0.045 0.01 0.015
0.05 0.01 0.015
0.055 0.01 0.015
0.06 0.01 0.015
0.065 0.01 0.015
0.07 0.01 0.015
0.075 0.01 0.015
0.08 0.01 0.015
0.085 0.01 0.015
0.09 0.01 0.015
0.095 0.01 0.015
0.1 0.01 0.015
0 0.015 0.015
0.005 0.015 0.015
0.01 0.015 0.015
0.015 0.015 0.015
0.02 0.015 0.015
0.025 0.015 0.015
0.03 0.015 0.015
0.035 0.015 0.015
0.04 0.015 0.015
0.045 0.015 0.015
0.05 0.015 0.015
0.055 0.015 0.015
0.06 0.015 0.015
0.065 0.015 0.015
0.07 0.015 0.015
0.075 0.015 0.015
0.08 0.015 0.015
0.085 0.015 0.015
0.09 0.015 0.015
0.095 0.015 0.015
0.1 0.015 0.015
0 0.02 0.015
0.005 0.02 0.015
0.01 0.02 0.015
0.015 0.02 0.015
0.02 0.02 0.015
0.025 0.02 0.015
0.03 0.02 0.015
0.035 0.02 0.015
0.04 0.02 0.015
0.045 0.02 0.015
0.05 0.02 0.015
0.055 0.02 0.015
0.06 0.02 0.015
0.065 0.02 0.015
0.07 0.02 0.015
0.075 0.02 0.015
0.08 0.02 0.015
0.085 0.02 0.015
0.09 0.02 0.015
0.095 0.02 0.015
0.1 0.02 0.015
0 0.025 0.015
0.005 0.025 0.015
0.01 0.025 0.015
0.015 0.025 0.015
0.02 0.025 0.015
0.025 0.025 0.015
0.03 0.025 0.015
0.035 0.025 0.015
0.04 0.025 0.015
0.045 0.025 0.015
0.05 0.025 0.015
0.055 0.025 0.015
0.06 0.025 0.015
0.065 0.025 0.015
0.07 0.025 0.015
0.075 0.025 0.015
0.08 0.025 0.015
0.085 0.025 0.015
0.09 0.025 0.015
0.095 0.025 0.015
0.1 0.025 0.015
0 0.03 0.015
0.005 0.03 0.015
0.01 0.03 0.015
0.015 0.03 0.015
0.02 0.03 0.015
0.025 0.03 0.015
0.03 0.03 0.015
0.035 0.03 0.015
0.04 0.03 0.015
0.045 0.03 0.015
0.05 0.03 0.015
0.055 0.03 0.015
0.06 0.03 0.015
0.065 0.03 0.015
0.07 0.03 0.015
0.075 0.03 0.015
0.08 0.03 0.015
0.085 0.03 0.015
0.09 0.03 0.015
0.095 0.03 0.015
0.1 0.03 0.015
0 0 0.02
0.005 0 0.02
0.01 0 0.02
0.015 0 0.02
0.02 0 0.02
0.025 0 0.02
0.03 0 0.02
0.035 0 0.02
0.04 0 0.02
0.045 0 0.02
0.05 0 0.02
0.055 0 0.02
0.06 0 0.02
0.065 0 0.02
0.07 0 0.02
0.075 0 0.02
0.08 0 0.02
0.085 0 0.02
0.09 0 0.02
0.095 0 0.02
0.1 0 0.02
0 0.005 0.02
0.005 0.005 0.02
0.01 0.005 0.02
0.015 0.005 0.02
0.02 0.005 0.02
0.025 0.005 0.02
0.03 0.005 0.02
0.035 0.005 0.02
0.04 0.005 0.02
0.045 0.005 0.02
0.05 0.005 0.02
0.055 0.005 0.02
0.06 0.005 0.02
0.065 0.005 0.02
0.07 0.005 0.02
0.075 0.005 0.02
0.08 0.005 0.02
0.085 0.005 0.02
0.09 0.005 0.02
0.095 0.005 0.02
0.1 0.005 0.02
0 0.01 0.02
0.005 0.01 0.02
0.01 0.01 0.02
0.015 0.01 0.02
0.02 0.01 0.02
0.025 0.01 0.02
0.03 0.01 0.02
0.035 0.01 0.02
0.04 0.01 0.02
0.045 0.01 0.02
0.05 0.01 0.02
0.055 0.01 0.02
0.06 0.01 0.02
0.065 0.01 0.02
0.07 0.01 0.02
0.075 0.01 0.02
0.08 0.01 0.02
0.085 0.01 0.02
0.09 0.01 0.02
0.095 0.01 0.02
[...]
<PointData Vectors="Displacement">
<DataArray type="Float32" Name="Displacement" NumberOfComponents="3" format="ascii">
0 0 0
0.00227522 0.000765658 0.000765658
0.00433074 0.000908768 0.000908768
0.00643285 0.000971101 0.000971101
0.00860016 0.000984076 0.000984076
0.0108002 0.000986358 0.000986358
0.0130149 0.00098583 0.00098583
0.0152346 0.000985264 0.000985264
0.0174558 0.000984949 0.000984949
0.0196773 0.000984819 0.000984819
0.0218989 0.000984776 0.000984776
0.0241204 0.000984772 0.000984772
0.0263419 0.000984793 0.000984793
0.0285634 0.00098484 0.00098484
0.0307844 0.000984906 0.000984906
0.0330045 0.000984839 0.000984839
0.0352222 0.000984139 0.000984139
0.0374349 0.000980425 0.000980425
0.0396404 0.000970725 0.000970725
0.0418492 0.000922871 0.000922871
0.044 0.000884723 0.000884723
0 0 0
0.00211347 0.000423226 0.000776177
0.00425377 0.000608807 0.000921492
0.00640255 0.000651054 0.000974145
0.00858988 0.000659893 0.00098529
0.0107974 0.000659248 0.000986586
0.0130143 0.000657894 0.000985858
0.0152346 0.000657055 0.000985246
0.0174559 0.000656688 0.000984935
0.0196774 0.000656555 0.000984812
0.0218989 0.000656516 0.000984773
0.0241204 0.000656516 0.00098477
0.0263419 0.000656541 0.000984791
0.0285634 0.000656605 0.00098484
0.0307846 0.000656725 0.000984918
0.0330052 0.000656851 0.00098491
0.0352242 0.000656492 0.000984354
0.0374402 0.000654131 0.000981211
0.0396537 0.000642895 0.000972562
0.0418633 0.000614596 0.000921523
0.044 0.000595189 0.000879401
0 0 0
0.00208487 0.000194226 0.000810198
0.004192 0.000298319 0.000940248
0.00636871 0.000328345 0.000983262
0.00857504 0.000331612 0.000988141
0.0107922 0.000330507 0.000987401
0.0130128 0.000329278 0.000985997
0.0152342 0.000328638 0.000985239
0.0174558 0.000328373 0.000984912
0.0196774 0.000328282 0.000984797
0.0218989 0.000328258 0.000984765
0.0241204 0.000328259 0.000984765
0.026342 0.000328277 0.000984788
0.0285635 0.000328325 0.000984846
0.0307849 0.000328425 0.000984965
0.0330062 0.000328558 0.000985093
0.0352267 0.000328503 0.000984964
0.0374452 0.0003269 0.000982626
0.039658 0.00032012 0.000974871
0.0418642 0.000307333 0.000919394
0.044 0.000299246 0.000872027
0 0 0
0.00207754 3.39122e-18 0.0008206
0.00417555 6.20337e-18 0.000949961
0.00635394 5.4341e-18 0.000987134
0.00856855 4.23445e-18 0.000989731
0.0107897 4.16376e-18 0.000987817
0.013012 5.98623e-18 0.000986092
0.015234 7.90927e-18 0.000985242
0.0174558 7.31621e-18 0.000984903
0.0196774 3.44996e-18 0.000984791
0.0218989 -1.94588e-18 0.000984762
0.0241204 -7.23043e-18 0.000984763
0.026342 -9.0692e-18 0.000984787
0.0285635 -4.56471e-18 0.00098485
0.0307851 1.35582e-18 0.000984989
0.0330066 6.26221e-18 0.000985195
0.0352278 6.2873e-18 0.000985241
0.0374468 2.89937e-18 0.000983291
0.0396588 -2.49073e-18 0.000975485
0.041864 -6.2832e-18 0.000918431
0.044 -4.67325e-19 0.000869587
0 0 0
0.00208487 -0.000194226 0.000810198
0.004192 -0.000298319 0.000940248
0.00636871 -0.000328345 0.000983262
0.00857504 -0.000331612 0.000988141
0.0107922 -0.000330507 0.000987401
0.0130128 -0.000329278 0.000985997
0.0152342 -0.000328638 0.000985239
0.0174558 -0.000328373 0.000984912
0.0196774 -0.000328282 0.000984797
0.0218989 -0.000328258 0.000984765
0.0241204 -0.000328259 0.000984765
0.026342 -0.000328277 0.000984788
0.0285635 -0.000328325 0.000984846
0.0307849 -0.000328425 0.000984965
0.0330062 -0.000328558 0.000985093
0.0352267 -0.000328503 0.000984964
0.0374452 -0.0003269 0.000982626
0.039658 -0.00032012 0.000974871
0.0418642 -0.000307333 0.000919394
0.044 -0.000299246 0.000872027
0 0 0
0.00211347 -0.000423226 0.000776177
0.00425377 -0.000608807 0.000921492
0.00640255 -0.000651054 0.000974145
0.00858988 -0.000659893 0.00098529
0.0107974 -0.000659248 0.000986586
0.0130143 -0.000657894 0.000985858
0.0152346 -0.000657055 0.000985246
0.0174559 -0.000656688 0.000984935
0.0196774 -0.000656555 0.000984812
0.0218989 -0.000656516 0.000984773
0.0241204 -0.000656516 0.00098477
0.0263419 -0.000656541 0.000984791
0.0285634 -0.000656605 0.00098484
0.0307846 -0.000656725 0.000984918
0.0330052 -0.000656851 0.00098491
0.0352242 -0.000656492 0.000984354
0.0374402 -0.000654131 0.000981211
0.0396537 -0.000642895 0.000972562
0.0418633 -0.000614596 0.000921523
0.044 -0.000595189 0.000879401
0 0 0
0.00227522 -0.000765658 0.000765658
0.00433074 -0.000908768 0.000908768
0.00643285 -0.000971101 0.000971101
0.00860016 -0.000984076 0.000984076
0.0108002 -0.000986358 0.000986358
0.0130149 -0.00098583 0.00098583
0.0152346 -0.000985264 0.000985264
0.0174558 -0.000984949 0.000984949
0.0196773 -0.000984819 0.000984819
0.0218989 -0.000984776 0.000984776
0.0241204 -0.000984772 0.000984772
0.0263419 -0.000984793 0.000984793
0.0285634 -0.00098484 0.00098484
0.0307844 -0.000984906 0.000984906
0.0330045 -0.000984839 0.000984839
0.0352222 -0.000984139 0.000984139
0.0374349 -0.000980425 0.000980425
0.0396404 -0.000970725 0.000970725
0.0418492 -0.000922871 0.000922871
0.044 -0.000884723 0.000884723
0 0 0
0.00211347 0.000776177 0.000423226
0.00425377 0.000921492 0.000608807
0.00640255 0.000974145 0.000651054
0.00858988 0.00098529 0.000659893
0.0107974 0.000986586 0.000659248
0.0130143 0.000985858 0.000657894
0.0152346 0.000985246 0.000657055
0.0174559 0.000984935 0.000656688
0.0196774 0.000984812 0.000656555
0.0218989 0.000984773 0.000656516
0.0241204 0.00098477 0.000656516
0.0263419 0.000984791 0.000656541
0.0285634 0.00098484 0.000656605
0.0307846 0.000984918 0.000656725
0.0330052 0.00098491 0.000656851
0.0352242 0.000984354 0.000656492
0.0374402 0.000981211 0.000654131
0.0396537 0.000972562 0.000642895
0.0418633 0.000921523 0.000614596
0.044 0.000879401 0.000595189
0 0 0
0.00194333 0.000421538 0.000421538
0.00417965 0.000608434 0.000608434
0.0063749 0.000650621 0.000650621
0.00858053 0.000659611 0.000659611
0.010795 0.000659152 0.000659152
0.0130139 0.000657857 0.000657857
0.0152346 0.000657046 0.000657046
0.0174559 0.000656687 0.000656687
0.0196774 0.000656555 0.000656555
0.0218989 0.000656517 0.000656517
0.0241204 0.000656516 0.000656516
0.0263419 0.00065654 0.00065654
0.0285634 0.000656603 0.000656603
0.0307847 0.000656718 0.000656718
0.0330057 0.000656833 0.000656833
0.0352261 0.000656458 0.000656458
0.0374453 0.000654149 0.000654149
0.0396674 0.000642954 0.000642954
0.0418784 0.000614393 0.000614393
0.044 0.000594383 0.000594383
0 0 0
0.00191449 0.000188902 0.000437635
0.00411932 0.000294224 0.000621294
0.00634295 0.000326438 0.000656273
0.00856689 0.00033085 0.000661528
0.0107902 0.000330263 0.000659648
0.0130125 0.000329218 0.000657943
0.0152343 0.000328629 0.000657038
0.0174559 0.000328375 0.000656671
0.0196774 0.000328285 0.000656545
0.0218989 0.00032826 0.000656512
0.0241204 0.00032826 0.000656513
0.026342 0.000328277 0.000656538
0.0285635 0.000328322 0.000656606
0.030785 0.00032841 0.000656747
0.0330067 0.000328508 0.000656956
0.0352284 0.000328374 0.000656848
0.0374502 0.000326636 0.000655102
0.0396722 0.000319846 0.000644019
0.0418799 0.00030757 0.00061292
0.044 0.000299753 0.000590288
0 0 0
0.00190635 1.89187e-17 0.000444739
0.00410361 3.06383e-17 0.000627604
0.00632908 2.89781e-17 0.000659321
0.00856087 2.00623e-17 0.000662625
0.0107879 1.46282e-17 0.000659961
0.0130118 1.64388e-17 0.000658004
0.0152341 2.06819e-17 0.000657039
0.0174559 2.13748e-17 0.000656664
0.0196774 1.37036e-17 0.000656541
0.0218989 -1.21549e-18 0.00065651
0.0241204 -2.02051e-17 0.000656512
0.026342 -3.10622e-17 0.000656538
0.0285635 -2.57254e-17 0.000656609
0.0307852 -7.60439e-18 0.000656765
0.0330071 9.21971e-18 0.000657028
0.0352294 1.32705e-17 0.000657063
0.0374517 3.41074e-18 0.000655556
0.0396732 -1.04241e-17 0.000644371
0.0418799 -1.6697e-17 0.000612233
0.044 -3.32613e-18 0.000588668
0 0 0
0.00191449 -0.000188902 0.000437635
0.00411932 -0.000294224 0.000621294
0.00634295 -0.000326438 0.000656273
0.00856689 -0.00033085 0.000661528
0.0107902 -0.000330263 0.000659648
0.0130125 -0.000329218 0.000657943
0.0152343 -0.000328629 0.000657038
0.0174559 -0.000328375 0.000656671
0.0196774 -0.000328285 0.000656545
0.0218989 -0.00032826 0.000656512
0.0241204 -0.00032826 0.000656513
0.026342 -0.000328277 0.000656538
0.0285635 -0.000328322 0.000656606
0.030785 -0.00032841 0.000656747
0.0330067 -0.000328508 0.000656956
0.0352284 -0.000328374 0.000656848
0.0374502 -0.000326636 0.000655102
0.0396722 -0.000319846 0.000644019
0.0418799 -0.00030757 0.00061292
0.044 -0.000299753 0.000590288
0 0 0
0.00194333 -0.000421538 0.000421538
0.00417965 -0.000608434 0.000608434
0.0063749 -0.000650621 0.000650621
0.00858053 -0.000659611 0.000659611
0.010795 -0.000659152 0.000659152
0.0130139 -0.000657857 0.000657857
0.0152346 -0.000657046 0.000657046
0.0174559 -0.000656687 0.000656687
0.0196774 -0.000656555 0.000656555
0.0218989 -0.000656517 0.000656517
0.0241204 -0.000656516 0.000656516
0.0263419 -0.00065654 0.00065654
0.0285634 -0.000656603 0.000656603
0.0307847 -0.000656718 0.000656718
0.0330057 -0.000656833 0.000656833
0.0352261 -0.000656458 0.000656458
0.0374453 -0.000654149 0.000654149
0.0396674 -0.000642954 0.000642954
0.0418784 -0.000614393 0.000614393
0.044 -0.000594383 0.000594383
0 0 0
0.00211347 -0.000776177 0.000423226
0.00425377 -0.000921492 0.000608807
0.00640255 -0.000974145 0.000651054
0.00858988 -0.00098529 0.000659893
0.0107974 -0.000986586 0.000659248
0.0130143 -0.000985858 0.000657894
0.0152346 -0.000985246 0.000657055
0.0174559 -0.000984935 0.000656688
0.0196774 -0.000984812 0.000656555
0.0218989 -0.000984773 0.000656516
0.0241204 -0.00098477 0.000656516
0.0263419 -0.000984791 0.000656541
0.0285634 -0.00098484 0.000656605
0.0307846 -0.000984918 0.000656725
0.0330052 -0.00098491 0.000656851
0.0352242 -0.000984354 0.000656492
0.0374402 -0.000981211 0.000654131
0.0396537 -0.000972562 0.000642895
0.0418633 -0.000921523 0.000614596
0.044 -0.000879401 0.000595189
0 0 0
0.00208487 0.000810198 0.000194226
0.004192 0.000940248 0.000298319
0.00636871 0.000983262 0.000328345
0.00857504 0.000988141 0.000331612
0.0107922 0.000987401 0.000330507
0.0130128 0.000985997 0.000329278
0.0152342 0.000985239 0.000328638
0.0174558 0.000984912 0.000328373
0.0196774 0.000984797 0.000328282
0.0218989 0.000984765 0.000328258
0.0241204 0.000984765 0.000328259
0.026342 0.000984788 0.000328277
0.0285635 0.000984846 0.000328325
0.0307849 0.000984965 0.000328425
0.0330062 0.000985093 0.000328558
0.0352267 0.000984964 0.000328503
0.0374452 0.000982626 0.0003269
0.039658 0.000974871 0.00032012
0.0418642 0.000919394 0.000307333
0.044 0.000872027 0.000299246
0 0 0
0.00191449 0.000437635 0.000188902
0.00411932 0.000621294 0.000294224
0.00634295 0.000656273 0.000326438
0.00856689 0.000661528 0.00033085
0.0107902 0.000659648 0.000330263
0.0130125 0.000657943 0.000329218
0.0152343 0.000657038 0.000328629
0.0174559 0.000656671 0.000328375
0.0196774 0.000656545 0.000328285
0.0218989 0.000656512 0.00032826
0.0241204 0.000656513 0.00032826
0.026342 0.000656538 0.000328277
0.0285635 0.000656606 0.000328322
0.030785 0.000656747 0.00032841
0.0330067 0.000656956 0.000328508
0.0352284 0.000656848 0.000328374
0.0374502 0.000655102 0.000326636
0.0396722 0.000644019 0.000319846
0.0418799 0.00061292 0.00030757
0.044 0.000590288 0.000299753
0 0 0
0.00188758 0.000195524 0.000195524
0.00405653 0.000299534 0.000299534
0.00631061 0.00032907 0.00032907
0.00855336 0.000331726 0.000331726
0.0107856 0.000330491 0.000330491
0.0130112 0.000329254 0.000329254
0.015234 0.000328624 0.000328624
0.0174559 0.000328367 0.000328367
0.0196775 0.00032828 0.00032828
0.021899 0.000328257 0.000328257
0.0241205 0.000328258 0.000328258
0.026342 0.000328276 0.000328276
0.0285636 0.000328323 0.000328323
0.0307853 0.000328423 0.000328423
0.0330076 0.000328565 0.000328565
0.0352308 0.000328561 0.000328561
0.0374554 0.000327034 0.000327034
0.0396769 0.000320188 0.000320188
0.0418807 0.000306931 0.000306931
0.044 0.000298111 0.000298111
0 0 0
0.00188004 2.09964e-17 0.000198591
0.00404037 3.30697e-17 0.000302461
0.00629628 3.08165e-17 0.000330559
0.00854737 2.34606e-17 0.000332274
0.0107833 2.23279e-17 0.000330642
0.0130105 2.77925e-17 0.000329284
0.0152339 3.19078e-17 0.000328625
0.0174559 2.93314e-17 0.000328364
0.0196775 1.77874e-17 0.000328278
0.021899 -3.13273e-19 0.000328256
0.0241205 -2.11609e-17 0.000328257
0.026342 -3.33904e-17 0.000328276
0.0285636 -2.79284e-17 0.000328324
0.0307855 -9.54586e-18 0.000328432
0.033008 5.80539e-18 0.000328601
0.0352318 6.33381e-18 0.000328668
0.037457 -6.58838e-18 0.000327242
0.0396778 -2.22548e-17 0.000320322
0.0418805 -2.60998e-17 0.000306604
0.044 -6.48618e-18 0.000297368
0 0 0
0.00188758 -0.000195524 0.000195524
0.00405653 -0.000299534 0.000299534
0.00631061 -0.00032907 0.00032907
0.00855336 -0.000331726 0.000331726
0.0107856 -0.000330491 0.000330491
0.0130112 -0.000329254 0.000329254
0.015234 -0.000328624 0.000328624
0.0174559 -0.000328367 0.000328367
0.0196775 -0.00032828 0.00032828
0.021899 -0.000328257 0.000328257
0.0241205 -0.000328258 0.000328258
0.026342 -0.000328276 0.000328276
0.0285636 -0.000328323 0.000328323
0.0307853 -0.000328423 0.000328423
0.0330076 -0.000328565 0.000328565
0.0352308 -0.000328561 0.000328561
0.0374554 -0.000327034 0.000327034
0.0396769 -0.000320188 0.000320188
0.0418807 -0.000306931 0.000306931
0.044 -0.000298111 0.000298111
0 0 0
0.00191449 -0.000437635 0.000188902
0.00411932 -0.000621294 0.000294224
0.00634295 -0.000656273 0.000326438
0.00856689 -0.000661528 0.00033085
0.0107902 -0.000659648 0.000330263
0.0130125 -0.000657943 0.000329218
0.0152343 -0.000657038 0.000328629
0.0174559 -0.000656671 0.000328375
0.0196774 -0.000656545 0.000328285
0.0218989 -0.000656512 0.00032826
0.0241204 -0.000656513 0.00032826
0.026342 -0.000656538 0.000328277
0.0285635 -0.000656606 0.000328322
0.030785 -0.000656747 0.00032841
0.0330067 -0.000656956 0.000328508
0.0352284 -0.000656848 0.000328374
0.0374502 -0.000655102 0.000326636
0.0396722 -0.000644019 0.000319846
0.0418799 -0.00061292 0.00030757
0.044 -0.000590288 0.000299753
0 0 0
0.00208487 -0.000810198 0.000194226
0.004192 -0.000940248 0.000298319
0.00636871 -0.000983262 0.000328345
0.00857504 -0.000988141 0.000331612
0.0107922 -0.000987401 0.000330507
0.0130128 -0.000985997 0.000329278
0.0152342 -0.000985239 0.000328638
0.0174558 -0.000984912 0.000328373
0.0196774 -0.000984797 0.000328282
0.0218989 -0.000984765 0.000328258
0.0241204 -0.000984765 0.000328259
0.026342 -0.000984788 0.000328277
0.0285635 -0.000984846 0.000328325
0.0307849 -0.000984965 0.000328425
0.0330062 -0.000985093 0.000328558
0.0352267 -0.000984964 0.000328503
0.0374452 -0.000982626 0.0003269
0.039658 -0.000974871 0.00032012
0.0418642 -0.000919394 0.000307333
0.044 -0.000872027 0.000299246
0 0 0
0.00207754 0.0008206 -4.44514e-19
0.00417555 0.000949961 -6.67524e-19
0.00635394 0.000987134 8.80555e-19
0.00856855 0.000989731 1.58924e-18
0.0107897 0.000987817 3.64508e-18
0.013012 0.000986092 7.2022e-18
0.015234 0.000985242 1.05385e-17
0.0174558 0.000984903 9.71569e-18
0.0196774 0.000984791 2.60296e-18
0.0218989 0.000984762 -5.0214e-18
0.0241204 0.000984763 -9.10681e-18
0.026342 0.000984787 -6.63532e-18
0.0285635 0.00098485 1.3023e-18
0.0307851 0.000984989 4.04666e-18
0.0330066 0.000985195 5.26622e-18
0.0352278 0.000985241 4.32762e-18
0.0374468 0.000983291 -1.06709e-18
0.0396588 0.000975485 -6.38446e-18
0.041864 0.000918431 -1.1078e-17
0.044 0.000869587 -2.3967e-18
0 0 0
0.00190635 0.000444739 -7.10932e-18
0.00410361 0.000627604 -8.01223e-18
0.00632908 0.000659321 -1.63833e-18
0.00856087 0.000662625 6.39298e-18
0.0107879 0.000659961 1.52235e-17
0.0130118 0.000658004 2.82412e-17
0.0152341 0.000657039 3.97464e-17
0.0174559 0.000656664 3.61315e-17
0.0196774 0.000656541 1.16315e-17
0.0218989 0.00065651 -1.69105e-17
0.0241204 0.000656512 -2.79518e-17
0.026342 0.000656538 -1.59314e-17
0.0285635 0.000656609 4.6457e-18
0.0307852 0.000656765 1.25579e-17
0.0330071 0.000657028 8.3458e-18
0.0352294 0.000657063 -2.39591e-18
0.0374517 0.000655556 -1.64543e-17
0.0396732 0.000644371 -2.98028e-17
0.0418799 0.000612233 -3.96121e-17
0.044 0.000588668 -1.45449e-17
0 0 0
0.00188004 0.000198591 -3.49293e-18
0.00404037 0.000302461 1.79219e-18
0.00629628 0.000330559 1.32518e-17
0.00854737 0.000332274 1.99069e-17
0.0107833 0.000330642 2.28469e-17
0.0130105 0.000329284 3.27923e-17
0.0152339 0.000328625 4.79916e-17
0.0174559 0.000328364 4.78269e-17
0.0196775 0.000328278 2.10962e-17
0.021899 0.000328256 -1.50209e-17
0.0241205 0.000328257 -3.19956e-17
0.026342 0.000328276 -2.16228e-17
0.0285636 0.000328324 -9.64803e-19
0.0307855 0.000328432 4.58265e-18
0.033008 0.000328601 -5.43066e-19
0.0352318 0.000328668 -1.03157e-17
0.037457 0.000327242 -2.2465e-17
0.0396778 0.000320322 -3.60097e-17
0.0418805 0.000306604 -4.74338e-17
0.044 0.000297368 -1.73276e-17
0 0 0
0.00187259 1.35618e-17 3.34852e-18
0.00402402 2.10379e-17 1.66939e-17
0.00628172 2.07924e-17 3.26169e-17
0.00854131 2.01053e-17 3.45641e-17
0.010781 2.45225e-17 2.38192e-17
0.0130098 2.8668e-17 2.0041e-17
0.0152337 2.71818e-17 2.99826e-17
0.0174558 2.24234e-17 3.78091e-17
0.0196775 1.70738e-17 2.63304e-17
0.021899 1.26242e-17 4.08478e-18
0.0241205 3.10431e-18 -8.84311e-18
0.026342 -8.41252e-18 -7.50247e-18
0.0285636 -1.41139e-17 -5.06813e-18
0.0307856 -1.49398e-17 -1.63697e-17
0.0330084 -1.5501e-17 -2.81495e-17
0.0352329 -1.97273e-17 -2.94608e-17
0.0374586 -2.44945e-17 -2.57665e-17
0.0396787 -2.54266e-17 -2.40502e-17
0.0418801 -1.86029e-17 -2.77209e-17
0.044 -3.34903e-18 -1.05938e-17
0 0 0
0.00188004 -0.000198591 9.53458e-18
0.00404037 -0.000302461 2.77247e-17
0.00629628 -0.000330559 4.42327e-17
0.00854737 -0.000332274 4.08959e-17
0.0107833 -0.000330642 1.92226e-17
0.0130105 -0.000329284 2.27896e-18
0.0152339 -0.000328625 5.07139e-18
0.0174559 -0.000328364 1.88259e-17
0.0196775 -0.000328278 2.53976e-17
0.021899 -0.000328256 2.20953e-17
0.0241205 -0.000328257 1.61558e-17
0.026342 -0.000328276 8.40429e-18
0.0285636 -0.000328324 -7.99874e-18
0.0307855 -0.000328432 -3.38352e-17
0.033008 -0.000328601 -4.85424e-17
0.0352318 -0.000328668 -4.1735e-17
0.037457 -0.000327242 -2.23714e-17
0.0396778 -0.000320322 -6.50952e-18
0.0418805 -0.000306604 -1.80907e-18
0.044 -0.000297368 -4.82945e-19
0 0 0
0.00190635 -0.000444739 1.09769e-17
0.00410361 -0.000627604 2.65522e-17
0.00632908 -0.000659321 3.81402e-17
0.00856087 -0.000662625 3.19625e-17
0.0107879 -0.000659961 1.11295e-17
0.0130118 -0.000658004 -6.26259e-18
0.0152341 -0.000657039 -6.26305e-18
0.0174559 -0.000656664 6.11879e-18
0.0196774 -0.000656541 1.74958e-17
0.0218989 -0.00065651 2.09997e-17
0.0241204 -0.000656512 1.74473e-17
0.026342 -0.000656538 6.6324e-18
0.0285635 -0.000656609 -9.79903e-18
0.0307852 -0.000656765 -3.10209e-17
0.0330071 -0.000657028 -3.95769e-17
0.0352294 -0.000657063 -2.96148e-17
0.0374517 -0.000655556 -1.08074e-17
0.0396732 -0.000644371 3.65481e-18
0.0418799 -0.000612233 8.30651e-18
0.044 -0.000588668 3.73426e-18
0 0 0
0.00207754 -0.0008206 1.59479e-18
0.00417555 -0.000949961 4.76601e-18
0.00635394 -0.000987134 7.77626e-18
0.00856855 -0.000989731 7.03996e-18
0.0107897 -0.000987817 2.12993e-18
0.013012 -0.000986092 -2.77378e-18
0.015234 -0.000985242 -2.98691e-18
0.0174558 -0.000984903 -2.08686e-19
0.0196774 -0.000984791 3.9804e-18
0.0218989 -0.000984762 6.1591e-18
0.0241204 -0.000984763 6.6708e-18
0.026342 -0.000984787 3.83067e-18
0.0285635 -0.00098485 -1.45189e-18
0.0307851 -0.000984989 -8.49015e-18
0.0330066 -0.000985195 -1.19005e-17
0.0352278 -0.000985241 -8.89535e-18
0.0374468 -0.000983291 -3.24825e-18
0.0396588 -0.000975485 1.42934e-18
0.041864 -0.000918431 4.65734e-18
0.044 -0.000869587 5.07133e-19
0 0 0
0.00208487 0.000810198 -0.000194226
0.004192 0.000940248 -0.000298319
0.00636871 0.000983262 -0.000328345
0.00857504 0.000988141 -0.000331612
0.0107922 0.000987401 -0.000330507
0.0130128 0.000985997 -0.000329278
0.0152342 0.000985239 -0.000328638
0.0174558 0.000984912 -0.000328373
0.0196774 0.000984797 -0.000328282
0.0218989 0.000984765 -0.000328258
0.0241204 0.000984765 -0.000328259
0.026342 0.000984788 -0.000328277
0.0285635 0.000984846 -0.000328325
0.0307849 0.000984965 -0.000328425