<?xml version="1.0"?>
<VTKFile type="UnstructuredGrid" version="0.1" byte_order="LittleEndian">
<UnstructuredGrid>
<Piece NumberOfPoints="1029" NumberOfCells="720">
<Points>
<DataArray type="Float32" NumberOfComponents="3" format="ascii">
0 0 0
0.005 0 0
0.01 0 0
0.015 0 0
0.02 0 0
0.025 0 0
0.03 0 0
0.035 0 0
0.04 0 0
0.045 0 0
0.05 0 0
0.055 0 0
0.06 0 0
0.065 0 0
0.07 0 0
0.075 0 0
0.08 0 0
0.085 0 0
0.09 0 0
0.095 0 0
0.1 0 0
0 0.005 0
0.005 0.005 0
0.01 0.005 0
0.015 0.005 0
0.02 0.005 0
0.025 0.005 0
0.03 0.005 0
0.035 0.005 0
0.04 0.005 0
0.045 0.005 0
0.05 0.005 0
0.055 0.005 0
0.06 0.005 0
0.065 0.005 0
0.07 0.005 0
0.075 0.005 0
0.08 0.005 0
0.085 0.005 0
0.09 0.005 0
0.095 0.005 0
0.1 0.005 0
0 0.01 0
0.005 0.01 0
0.01 0.01 0
0.015 0.01 0
0.02 0.01 0
0.025 0.01 0
0.03 0.01 0
0.035 0.01 0
0.04 0.01 0
0.045 0.01 0
0.05 0.01 0
0.055 0.01 0
0.06 0.01 0
0.065 0.01 0
0.07 0.01 0
0.075 0.01 0
0.08 0.01 0
0.085 0.01 0
0.09 0.01 0
0.095 0.01 0
0.1 0.01 0
0 0.015 0
0.005 0.015 0
0.01 0.015 0
0.015 0.015 0
0.02 0.015 0
0.025 0.015 0
0.03 0.015 0
0.035 0.015 0
0.04 0.015 0
0.045 0.015 0
0.05 0.015 0
0.055 0.015 0
0.06 0.015 0
0.065 0.015 0
0.07 0.015 0
0.075 0.015 0
0.08 0.015 0
0.085 0.015 0
0.09 0.015 0
0.095 0.015 0
0.1 0.015 0
0 0.02 0
0.005 0.02 0
0.01 0.02 0
0.015 0.02 0
0.02 0.02 0
0.025 0.02 0
0.03 0.02 0
0.035 0.02 0
0.04 0.02 0
0.045 0.02 0
0.05 0.02 0
0.055 0.02 0
0.06 0.02 0
0.065 0.02 0
0.07 0.02 0
0.075 0.02 0
0.08 0.02 0
0.085 0.02 0
0.09 0.02 0
0.095 0.02 0
0.1 0.02 0
0 0.025 0
0.005 0.025 0
0.01 0.025 0
0.015 0.025 0
0.02 0.025 0
0.025 0.025 0
0.03 0.025 0
0.035 0.025 0
0.04 0.025 0
0.045 0.025 0
0.05 0.025 0
0.055 0.025 0
0.06 0.025 0
0.065 0.025 0
0.07 0.025 0
0.075 0.025 0
0.08 0.025 0
0.085 0.025 0
0.09 0.025 0
0.095 0.025 0
0.1 0.025 0
0 0.03 0
0.005 0.03 0
0.01 0.03 0
0.015 0.03 0
0.02 0.03 0
0.025 0.03 0
0.03 0.03 0
0.035 0.03 0
0.04 0.03 0
0.045 0.03 0
0.05 0.03 0
0.055 0.03 0
0.06 0.03 0
0.065 0.03 0
0.07 0.03 0
0.075 0.03 0
0.08 0.03 0
0.085 0.03 0
0.09 0.03 0
0.095 0.03 0
0.1 0.03 0
0 0 0.005
0.005 0 0.005
0.01 0 0.005
0.015 0 0.005
0.02 0 0.005
0.025 0 0.005
0.03 0 0.005
0.035 0 0.005
0.04 0 0.005
0.045 0 0.005
0.05 0 0.005
0.055 0 0.005
0.06 0 0.005
0.065 0 0.005
0.07 0 0.005
0.075 0 0.005
0.08 0 0.005
0.085 0 0.005
0.09 0 0.005
0.095 0 0.005
0.1 0 0.005
0 0.005 0.005
0.005 0.005 0.005
0.01 0.005 0.005
0.015 0.005 0.005
0.02 0.005 0.005
0.025 0.005 0.005
0.03 0.005 0.005
0.035 0.005 0.005
0.04 0.005 0.005
0.045 0.005 0.005
0.05 0.005 0.005
0.055 0.005 0.005
0.06 0.005 0.005
0.065 0.005 0.005
0.07 0.005 0.005
0.075 0.005 0.005
0.08 0.005 0.005
0.085 0.005 0.005
0.09 0.005 0.005
0.095 0.005 0.005
0.1 0.005 0.005
0 0.01 0.005
0.005 0.01 0.005
0.01 0.01 0.005
0.015 0.01 0.005
0.02 0.01 0.005
0.025 0.01 0.005
0.03 0.01 0.005
0.035 0.01 0.005
0.04 0.01 0.005
0.045 0.01 0.005
0.05 0.01 0.005
0.055 0.01 0.005
0.06 0.01 0.005
0.065 0.01 0.005
0.07 0.01 0.005
0.075 0.01 0.005
0.08 0.01 0.005
0.085 0.01 0.005
0.09 0.01 0.005
0.095 0.01 0.005
0.1 0.01 0.005
0 0.015 0.005
0.005 0.015 0.005
0.01 0.015 0.005
0.015 0.015 0.005
0.02 0.015 0.005
0.025 0.015 0.005
0.03 0.015 0.005
0.035 0.015 0.005
0.04 0.015 0.005
0.045 0.015 0.005
0.05 0.015 0.005
0.055 0.015 0.005
0.06 0.015 0.005
0.065 0.015 0.005
0.07 0.015 0.005
0.075 0.015 0.005
0.08 0.015 0.005
0.085 0.015 0.005
0.09 0.015 0.005
0.095 0.015 0.005
0.1 0.015 0.005
0 0.02 0.005
0.005 0.02 0.005
0.01 0.02 0.005
0.015 0.02 0.005
0.02 0.02 0.005
0.025 0.02 0.005
0.03 0.02 0.005
0.035 0.02 0.005
0.04 0.02 0.005
0.045 0.02 0.005
0.05 0.02 0.005
0.055 0.02 0.005
0.06 0.02 0.005
0.065 0.02 0.005
0.07 0.02 0.005
0.075 0.02 0.005
0.08 0.02 0.005
0.085 0.02 0.005
0.09 0.02 0.005
0.095 0.02 0.005
0.1 0.02 0.005
0 0.025 0.005
0.005 0.025 0.005
0.01 0.025 0.005
0.015 0.025 0.005
0.02 0.025 0.005
0.025 0.025 0.005
0.03 0.025 0.005
0.035 0.025 0.005
0.04 0.025 0.005
0.045 0.025 0.005
0.05 0.025 0.005
0.055 0.025 0.005
0.06 0.025 0.005
0.065 0.025 0.005
0.07 0.025 0.005
0.075 0.025 0.005
0.08 0.025 0.005
0.085 0.025 0.005
0.09 0.025 0.005
0.095 0.025 0.005
0.1 0.025 0.005
0 0.03 0.005
0.005 0.03 0.005
0.01 0.03 0.005
0.015 0.03 0.005
0.02 0.03 0.005
0.025 0.03 0.005
0.03 0.03 0.005
0.035 0.03 0.005
0.04 0.03 0.005
0.045 0.03 0.005
0.05 0.03 0.005
0.055 0.03 0.005
0.06 0.03 0.005
0.065 0.03 0.005
0.07 0.03 0.005
0.075 0.03 0.005
0.08 0.03 0.005
0.085 0.03 0.005
0.09 0.03 0.005
0.095 0.03 0.005
0.1 0.03 0.005
0 0 0.01
0.005 0 0.01
0.01 0 0.01
0.015 0 0.01
0.02 0 0.01
0.025 0 0.01
0.03 0 0.01
0.035 0 0.01
0.04 0 0.01
0.045 0 0.01
0.05 0 0.01
0.055 0 0.01
0.06 0 0.01
0.065 0 0.01
0.07 0 0.01
0.075 0 0.01
0.08 0 0.01
0.085 0 0.01
0.09 0 0.01
0.095 0 0.01
0.1 0 0.01
0 0.005 0.01
0.005 0.005 0.01
0.01 0.005 0.01
0.015 0.005 0.01
0.02 0.005 0.01
0.025 0.005 0.01
0.03 0.005 0.01
0.035 0.005 0.01
0.04 0.005 0.01
0.045 0.005 0.01
0.05 0.005 0.01
0.055 0.005 0.01
0.06 0.005 0.01
0.065 0.005 0.01
0.07 0.005 0.01
0.075 0.005 0.01
0.08 0.005 0.01
0.085 0.005 0.01
0.09 0.005 0.01
0.095 0.005 0.01
0.1 0.005 0.01
0 0.01 0.01
0.005 0.01 0.01
0.01 0.01 0.01
0.015 0.01 0.01
0.02 0.01 0.01
0.025 0.01 0.01
0.03 0.01 0.01
0.035 0.01 0.01
0.04 0.01 0.01
0.045 0.01 0.01
0.05 0.01 0.01
0.055 0.01 0.01
0.06 0.01 0.01
0.065 0.01 0.01
0.07 0.01 0.01
0.075 0.01 0.01
0.08 0.01 0.01
0.085 0.01 0.01
0.09 0.01 0.01
0.095 0.01 0.01
0.1 0.01 0.01
0 0.015 0.01
0.005 0.015 0.01
0.01 0.015 0.01
0.015 0.015 0.01
0.02 0.015 0.01
0.025 0.015 0.01
0.03 0.015 0.01
0.035 0.015 0.01
0.04 0.015 0.01
0.045 0.015 0.01
0.05 0.015 0.01
0.055 0.015 0.01
0.06 0.015 0.01
0.065 0.015 0.01
0.07 0.015 0.01
0.075 0.015 0.01
0.08 0.015 0.01
0.085 0.015 0.01
0.09 0.015 0.01
0.095 0.015 0.01
0.1 0.015 0.01
0 0.02 0.01
0.005 0.02 0.01
0.01 0.02 0.01
0.015 0.02 0.01
0.02 0.02 0.01
0.025 0.02 0.01
0.03 0.02 0.01
0.035 0.02 0.01
0.04 0.02 0.01
0.045 0.02 0.01
0.05 0.02 0.01
0.055 0.02 0.01
0.06 0.02 0.01
0.065 0.02 0.01
0.07 0.02 0.01
0.075 0.02 0.01
0.08 0.02 0.01
0.085 0.02 0.01
0.09 0.02 0.01
0.095 0.02 0.01
0.1 0.02 0.01
0 0.025 0.01
0.005 0.025 0.01
0.01 0.025 0.01
0.015 0.025 0.01
0.02 0.025 0.01
0.025 0.025 0.01
0.03 0.025 0.01
0.035 0.025 0.01
0.04 0.025 0.01
0.045 0.025 0.01
0.05 0.025 0.01
0.055 0.025 0.01
0.06 0.025 0.01
0.065 0.025 0.01
0.07 0.025 0.01
0.075 0.025 0.01
0.08 0.025 0.01
0.085 0.025 0.01
0.09 0.025 0.01
0.095 0.025 0.01
0.1 0.025 0.01
0 0.03 0.01
0.005 0.03 0.01
0.01 0.03 0.01
0.015 0.03 0.01
0.02 0.03 0.01
0.025 0.03 0.01
0.03 0.03 0.01
0.035 0.03 0.01
0.04 0.03 0.01
0.045 0.03 0.01
0.05 0.03 0.01
0.055 0.03 0.01
0.06 0.03 0.01
0.065 0.03 0.01
0.07 0.03 0.01
0.075 0.03 0.01
0.08 0.03 0.01
0.085 0.03 0.01
0.09 0.03 0.01
0.095 0.03 0.01
0.1 0.03 0.01
0 0 0.015
0.005 0 0.015
0.01 0 0.015
0.015 0 0.015
0.02 0 0.015
0.025 0 0.015
0.03 0 0.015
0.035 0 0.015
0.04 0 0.015
0.045 0 0.015
0.05 0 0.015
0.055 0 0.015
0.06 0 0.015
0.065 0 0.015
0.07 0 0.015
0.075 0 0.015
0.08 0 0.015
0.085 0 0.015
0.09 0 0.015
0.095 0 0.015
0.1 0 0.015
0 0.005 0.015
0.005 0.005 0.015
0.01 0.005 0.015
0.015 0.005 0.015
0.02 0.005 0.015
0.025 0.005 0.015
0.03 0.005 0.015
0.035 0.005 0.015
0.04 0.005 0.015
0.045 0.005 0.015
0.05 0.005 0.015
0.055 0.005 0.015
0.06 0.005 0.015
0.065 0.005 0.015
0.07 0.005 0.015
0.075 0.005 0.015
0.08 0.005 0.015
0.085 0.005 0.015
0.09 0.005 0.015
0.095 0.005 0.015
0.1 0.005 0.015
0 0.01 0.015
0.005 0.01 0.015
0.01 0.01 0.015
0.015 0.01 0.015
0.02 0.01 0.015
0.025 0.01 0.015
0.03 0.01 0.015
0.035 0.01 0.015
0.04 0.01 0.015
0.045 0.01 0.015
0.05 0.01 0.015
0.055 0.01 0.015
0.06 0.01 0.015
0.065 0.01 0.015
0.07 0.01 0.015
0.075 0.01 0.015
0.08 0.01 0.015
0.085 0.01 0.015
0.09 0.01 0.015
0.095 0.01 0.015
0.1 0.01 0.015
0 0.015 0.015
0.005 0.015 0.015
0.01 0.015 0.015
0.015 0.015 0.015
0.02 0.015 0.015
0.025 0.015 0.015
0.03 0.015 0.015
0.035 0.015 0.015
0.04 0.015 0.015
0.045 0.015 0.015
0.05 0.015 0.015
0.055 0.015 0.015
0.06 0.015 0.015
0.065 0.015 0.015
0.07 0.015 0.015
0.075 0.015 0.015
0.08 0.015 0.015
0.085 0.015 0.015
0.09 0.015 0.015
0.095 0.015 0.015
0.1 0.015 0.015
0 0.02 0.015
0.005 0.02 0.015
0.01 0.02 0.015
0.015 0.02 0.015
0.02 0.02 0.015
0.025 0.02 0.015
0.03 0.02 0.015
0.035 0.02 0.015
0.04 0.02 0.015
0.045 0.02 0.015
0.05 0.02 0.015
0.055 0.02 0.015
0.06 0.02 0.015
0.065 0.02 0.015
0.07 0.02 0.015
0.075 0.02 0.015
0.08 0.02 0.015
0.085 0.02 0.015
0.09 0.02 0.015
0.095 0.02 0.015
0.1 0.02 0.015
0 0.025 0.015
0.005 0.025 0.015
0.01 0.025 0.015
0.015 0.025 0.015
0.02 0.025 0.015
0.025 0.025 0.015
0.03 0.025 0.015
0.035 0.025 0.015
0.04 0.025 0.015
0.045 0.025 0.015
0.05 0.025 0.015
0.055 0.025 0.015
0.06 0.025 0.015
0.065 0.025 0.015
0.07 0.025 0.015
0.075 0.025 0.015
0.08 0.025 0.015
0.085 0.025 0.015
0.09 0.025 0.015
0.095 0.025 0.015
0.1 0.025 0.015
0 0.03 0.015
0.005 0.03 0.015
0.01 0.03 0.015
0.015 0.03 0.015
0.02 0.03 0.015
0.025 0.03 0.015
0.03 0.03 0.015
0.035 0.03 0.015
0.04 0.03 0.015
0.045 0.03 0.015
0.05 0.03 0.015
0.055 0.03 0.015
0.06 0.03 0.015
0.065 0.03 0.015
0.07 0.03 0.015
0.075 0.03 0.015
0.08 0.03 0.015
0.085 0.03 0.015
0.09 0.03 0.015
0.095 0.03 0.015
0.1 0.03 0.015
0 0 0.02
0.005 0 0.02
0.01 0 0.02
0.015 0 0.02
0.02 0 0.02
0.025 0 0.02
0.03 0 0.02
0.035 0 0.02
0.04 0 0.02
0.045 0 0.02
0.05 0 0.02
0.055 0 0.02
0.06 0 0.02
0.065 0 0.02
0.07 0 0.02
0.075 0 0.02
0.08 0 0.02
0.085 0 0.02
0.09 0 0.02
0.095 0 0.02
0.1 0 0.02
0 0.005 0.02
0.005 0.005 0.02
0.01 0.005 0.02
0.015 0.005 0.02
0.02 0.005 0.02
0.025 0.005 0.02
0.03 0.005 0.02
0.035 0.005 0.02
0.04 0.005 0.02
0.045 0.005 0.02
0.05 0.005 0.02
0.055 0.005 0.02
0.06 0.005 0.02
0.065 0.005 0.02
0.07 0.005 0.02
0.075 0.005 0.02
0.08 0.005 0.02
0.085 0.005 0.02
0.09 0.005 0.02
0.095 0.005 0.02
0.1 0.005 0.02
0 0.01 0.02
0.005 0.01 0.02
0.01 0.01 0.02
0.015 0.01 0.02
0.02 0.01 0.02
0.025 0.01 0.02
0.03 0.01 0.02
0.035 0.01 0.02
0.04 0.01 0.02
0.045 0.01 0.02
0.05 0.01 0.02
0.055 0.01 0.02
0.06 0.01 0.02
0.065 0.01 0.02
0.07 0.01 0.02
0.075 0.01 0.02
0.08 0.01 0.02
0.085 0.01 0.02
0.09 0.01 0.02
0.095 0.01 0.02
[...]
<PointData Vectors="Displacement">
<DataArray type="Float32" Name="Displacement" NumberOfComponents="3" format="ascii">
0 0 0
0.000514146 0.000131498 0.000131498
0.000944992 0.000168314 0.000168314
0.0013781 0.000184846 0.000184846
0.00182132 0.000189663 0.000189663
0.00227232 0.000190588 0.000190588
0.00272784 0.000190299 0.000190299
0.00318554 0.000189873 0.000189873
0.00364415 0.000189579 0.000189579
0.00410306 0.000189433 0.000189433
0.00456205 0.000189407 0.000189407
0.00502102 0.00018949 0.00018949
0.00547982 0.000189707 0.000189707
0.00593811 0.00019008 0.00019008
0.006395 0.000190507 0.000190507
0.00684882 0.000190429 0.000190429
0.00729686 0.00018824 0.00018824
0.00773589 0.000179281 0.000179281
0.00816533 0.000156397 0.000156397
0.00861783 7.48777e-05 7.48777e-05
0.009 1.54564e-05 1.54564e-05
0 0 0
0.000473301 6.83164e-05 0.000131792
0.000922115 0.000110106 0.000170384
0.00136718 0.000123747 0.00018562
0.0018169 0.000127659 0.000190032
0.00227086 0.000127905 0.00019071
0.00272753 0.00012733 0.000190329
0.00318559 0.000126791 0.000189871
0.00364424 0.000126463 0.00018957
0.0041031 0.000126311 0.000189425
0.00456203 0.000126284 0.000189399
0.00502094 0.000126369 0.000189482
0.00547973 0.000126601 0.000189701
0.00593816 0.000127033 0.000190088
0.0063957 0.000127632 0.000190569
0.00685134 0.000127986 0.000190643
0.00730364 0.000126503 0.000188764
0.00775138 0.000119321 0.000180605
0.00819712 9.48771e-05 0.000158382
0.00865053 4.79562e-05 7.19873e-05
0.009 1.91146e-05 6.8988e-06
0 0 0
0.000467792 3.07774e-05 0.000134161
0.000908536 5.2358e-05 0.000172798
0.00135745 6.19713e-05 0.000187327
0.00181149 6.42969e-05 0.000190841
0.00226838 6.43423e-05 0.000191038
0.00272658 6.38866e-05 0.000190431
0.0031853 6.35001e-05 0.000189888
0.00364419 6.32723e-05 0.000189561
0.00410311 6.31689e-05 0.000189411
0.00456203 6.31507e-05 0.000189385
0.00502095 6.32084e-05 0.00018947
0.00547986 6.33672e-05 0.000189701
0.00593869 6.36701e-05 0.000190135
0.00639722 6.41124e-05 0.000190756
0.00685493 6.44329e-05 0.000191159
0.00731072 6.36214e-05 0.000189945
0.00776261 5.84875e-05 0.000182568
0.00820643 4.44615e-05 0.000160008
0.00865372 2.42701e-05 6.7844e-05
0.009 1.25684e-05 -3.55318e-06
0 0 0
0.000466344 4.93881e-19 0.000134842
0.000905467 1.21955e-18 0.000173865
0.00135381 1.55806e-18 0.000188038
0.00180924 2.28664e-18 0.000191241
0.00226725 2.48001e-18 0.000191205
0.0027261 2.58426e-18 0.000190489
0.00318514 2.64708e-18 0.000189901
0.00364414 2.4156e-18 0.000189559
0.0041031 1.89964e-18 0.000189406
0.00456203 2.00719e-18 0.000189379
0.00502096 2.02433e-18 0.000189465
0.00547994 2.05538e-18 0.000189704
0.00593897 2.45373e-18 0.000190165
0.00639795 2.34267e-18 0.000190857
0.0068565 2.70167e-18 0.000191422
0.00731353 2.53136e-18 0.000190471
0.00776576 2.53254e-18 0.000183351
0.008208 2.7011e-18 0.000160228
0.00865364 2.98815e-18 6.60766e-05
0.009 1.97772e-18 -6.96741e-06
0 0 0
0.000467792 -3.07774e-05 0.000134161
0.000908536 -5.2358e-05 0.000172798
0.00135745 -6.19713e-05 0.000187327
0.00181149 -6.42969e-05 0.000190841
0.00226838 -6.43423e-05 0.000191038
0.00272658 -6.38866e-05 0.000190431
0.0031853 -6.35001e-05 0.000189888
0.00364419 -6.32723e-05 0.000189561
0.00410311 -6.31689e-05 0.000189411
0.00456203 -6.31507e-05 0.000189385
0.00502095 -6.32084e-05 0.00018947
0.00547986 -6.33672e-05 0.000189701
0.00593869 -6.36701e-05 0.000190135
0.00639722 -6.41124e-05 0.000190756
0.00685493 -6.44329e-05 0.000191159
0.00731072 -6.36214e-05 0.000189945
0.00776261 -5.84875e-05 0.000182568
0.00820643 -4.44615e-05 0.000160008
0.00865372 -2.42701e-05 6.7844e-05
0.009 -1.25684e-05 -3.55318e-06
0 0 0
0.000473301 -6.83164e-05 0.000131792
0.000922115 -0.000110106 0.000170384
0.00136718 -0.000123747 0.00018562
0.0018169 -0.000127659 0.000190032
0.00227086 -0.000127905 0.00019071
0.00272753 -0.00012733 0.000190329
0.00318559 -0.000126791 0.000189871
0.00364424 -0.000126463 0.00018957
0.0041031 -0.000126311 0.000189425
0.00456203 -0.000126284 0.000189399
0.00502094 -0.000126369 0.000189482
0.00547973 -0.000126601 0.000189701
0.00593816 -0.000127033 0.000190088
0.0063957 -0.000127632 0.000190569
0.00685134 -0.000127986 0.000190643
0.00730364 -0.000126503 0.000188764
0.00775138 -0.000119321 0.000180605
0.00819712 -9.48771e-05 0.000158382
0.00865053 -4.79562e-05 7.19873e-05
0.009 -1.91146e-05 6.8988e-06
0 0 0
0.000514146 -0.000131498 0.000131498
0.000944992 -0.000168314 0.000168314
0.0013781 -0.000184846 0.000184846
0.00182132 -0.000189663 0.000189663
0.00227232 -0.000190588 0.000190588
0.00272784 -0.000190299 0.000190299
0.00318554 -0.000189873 0.000189873
0.00364415 -0.000189579 0.000189579
0.00410306 -0.000189433 0.000189433
0.00456205 -0.000189407 0.000189407
0.00502102 -0.00018949 0.00018949
0.00547982 -0.000189707 0.000189707
0.00593811 -0.00019008 0.00019008
0.006395 -0.000190507 0.000190507
0.00684882 -0.000190429 0.000190429
0.00729686 -0.00018824 0.00018824
0.00773589 -0.000179281 0.000179281
0.00816533 -0.000156397 0.000156397
0.00861783 -7.48777e-05 7.48777e-05
0.009 -1.54564e-05 1.54564e-05
0 0 0
0.000473301 0.000131792 6.83164e-05
0.000922115 0.000170384 0.000110106
0.00136718 0.00018562 0.000123747
0.0018169 0.000190032 0.000127659
0.00227086 0.00019071 0.000127905
0.00272753 0.000190329 0.00012733
0.00318559 0.000189871 0.000126791
0.00364424 0.00018957 0.000126463
0.0041031 0.000189425 0.000126311
0.00456203 0.000189399 0.000126284
0.00502094 0.000189482 0.000126369
0.00547973 0.000189701 0.000126601
0.00593816 0.000190088 0.000127033
0.0063957 0.000190569 0.000127632
0.00685134 0.000190643 0.000127986
0.00730364 0.000188764 0.000126503
0.00775138 0.000180605 0.000119321
0.00819712 0.000158382 9.48771e-05
0.00865053 7.19873e-05 4.79562e-05
0.009 6.8988e-06 1.91146e-05
0 0 0
0.000431607 6.80536e-05 6.80536e-05
0.000899205 0.000109853 0.000109853
0.00135674 0.000123616 0.000123616
0.00181273 0.000127557 0.000127557
0.00226954 0.000127858 0.000127858
0.00272729 0.00012731 0.00012731
0.00318566 0.000126784 0.000126784
0.00364434 0.000126462 0.000126462
0.00410315 0.000126312 0.000126312
0.00456201 0.000126285 0.000126285
0.00502086 0.000126369 0.000126369
0.00547962 0.000126598 0.000126598
0.00593818 0.000127022 0.000127022
0.0063963 0.000127602 0.000127602
0.00685367 0.000127922 0.000127922
0.00731011 0.000126404 0.000126404
0.00776668 0.000119253 0.000119253
0.00823034 9.48327e-05 9.48327e-05
0.00868551 4.78271e-05 4.78271e-05
0.009 1.86632e-05 1.86632e-05
0 0 0
0.000425841 3.02502e-05 6.89891e-05
0.00088566 5.17704e-05 0.000111222
0.00134723 6.15482e-05 0.000124551
0.00180758 6.40688e-05 0.000128024
0.00226721 6.42378e-05 0.000128042
0.00272641 6.38483e-05 0.000127365
0.0031854 6.34898e-05 0.000126792
0.0036443 6.32721e-05 0.000126455
0.00410316 6.31716e-05 0.000126303
0.00456201 6.31537e-05 0.000126276
0.00502086 6.32101e-05 0.000126362
0.00547973 6.33634e-05 0.000126596
0.00593866 6.36494e-05 0.000127047
0.00639772 6.40493e-05 0.000127708
0.00685708 6.42828e-05 0.000128226
0.00731699 6.3336e-05 0.000127084
0.00777808 5.80864e-05 0.000120365
0.00824078 4.43073e-05 9.53261e-05
0.00868993 2.49491e-05 4.51621e-05
0.009 1.38151e-05 1.31032e-05
0 0 0
0.000424224 2.01652e-18 6.94694e-05
0.000882589 3.8915e-18 0.000111836
0.00134371 6.18412e-18 0.000125028
0.00180543 7.8973e-18 0.00012828
0.00226614 9.28239e-18 0.000128151
0.00272597 9.61471e-18 0.000127401
0.00318525 9.18283e-18 0.000126799
0.00364426 8.38188e-18 0.000126454
0.00410315 7.741e-18 0.000126299
0.00456201 7.69163e-18 0.000126272
0.00502088 8.02426e-18 0.000126358
0.00547981 8.64897e-18 0.000126598
0.00593892 8.86263e-18 0.000127065
0.00639841 9.04027e-18 0.000127773
0.00685857 9.33181e-18 0.000128398
0.00731972 9.41737e-18 0.000127439
0.0077813 9.83197e-18 0.000120842
0.00824282 1.00651e-17 9.53726e-05
0.00869042 1.01993e-17 4.39494e-05
0.009 4.25681e-18 1.08987e-05
0 0 0
0.000425841 -3.02502e-05 6.89891e-05
0.00088566 -5.17704e-05 0.000111222
0.00134723 -6.15482e-05 0.000124551
0.00180758 -6.40688e-05 0.000128024
0.00226721 -6.42378e-05 0.000128042
0.00272641 -6.38483e-05 0.000127365
0.0031854 -6.34898e-05 0.000126792
0.0036443 -6.32721e-05 0.000126455
0.00410316 -6.31716e-05 0.000126303
0.00456201 -6.31537e-05 0.000126276
0.00502086 -6.32101e-05 0.000126362
0.00547973 -6.33634e-05 0.000126596
0.00593866 -6.36494e-05 0.000127047
0.00639772 -6.40493e-05 0.000127708
0.00685708 -6.42828e-05 0.000128226
0.00731699 -6.3336e-05 0.000127084
0.00777808 -5.80864e-05 0.000120365
0.00824078 -4.43073e-05 9.53261e-05
0.00868993 -2.49491e-05 4.51621e-05
0.009 -1.38151e-05 1.31032e-05
0 0 0
0.000431607 -6.80536e-05 6.80536e-05
0.000899205 -0.000109853 0.000109853
0.00135674 -0.000123616 0.000123616
0.00181273 -0.000127557 0.000127557
0.00226954 -0.000127858 0.000127858
0.00272729 -0.00012731 0.00012731
0.00318566 -0.000126784 0.000126784
0.00364434 -0.000126462 0.000126462
0.00410315 -0.000126312 0.000126312
0.00456201 -0.000126285 0.000126285
0.00502086 -0.000126369 0.000126369
0.00547962 -0.000126598 0.000126598
0.00593818 -0.000127022 0.000127022
0.0063963 -0.000127602 0.000127602
0.00685367 -0.000127922 0.000127922
0.00731011 -0.000126404 0.000126404
0.00776668 -0.000119253 0.000119253
0.00823034 -9.48327e-05 9.48327e-05
0.00868551 -4.78271e-05 4.78271e-05
0.009 -1.86632e-05 1.86632e-05
0 0 0
0.000473301 -0.000131792 6.83164e-05
0.000922115 -0.000170384 0.000110106
0.00136718 -0.00018562 0.000123747
0.0018169 -0.000190032 0.000127659
0.00227086 -0.00019071 0.000127905
0.00272753 -0.000190329 0.00012733
0.00318559 -0.000189871 0.000126791
0.00364424 -0.00018957 0.000126463
0.0041031 -0.000189425 0.000126311
0.00456203 -0.000189399 0.000126284
0.00502094 -0.000189482 0.000126369
0.00547973 -0.000189701 0.000126601
0.00593816 -0.000190088 0.000127033
0.0063957 -0.000190569 0.000127632
0.00685134 -0.000190643 0.000127986
0.00730364 -0.000188764 0.000126503
0.00775138 -0.000180605 0.000119321
0.00819712 -0.000158382 9.48771e-05
0.00865053 -7.19873e-05 4.79562e-05
0.009 -6.8988e-06 1.91146e-05
0 0 0
0.000467792 0.000134161 3.07774e-05
0.000908536 0.000172798 5.2358e-05
0.00135745 0.000187327 6.19713e-05
0.00181149 0.000190841 6.42969e-05
0.00226838 0.000191038 6.43423e-05
0.00272658 0.000190431 6.38866e-05
0.0031853 0.000189888 6.35001e-05
0.00364419 0.000189561 6.32723e-05
0.00410311 0.000189411 6.31689e-05
0.00456203 0.000189385 6.31507e-05
0.00502095 0.00018947 6.32084e-05
0.00547986 0.000189701 6.33672e-05
0.00593869 0.000190135 6.36701e-05
0.00639722 0.000190756 6.41124e-05
0.00685493 0.000191159 6.44329e-05
0.00731072 0.000189945 6.36214e-05
0.00776261 0.000182568 5.84875e-05
0.00820643 0.000160008 4.44615e-05
0.00865372 6.7844e-05 2.42701e-05
0.009 -3.55318e-06 1.25684e-05
0 0 0
0.000425841 6.89891e-05 3.02502e-05
0.00088566 0.000111222 5.17704e-05
0.00134723 0.000124551 6.15482e-05
0.00180758 0.000128024 6.40688e-05
0.00226721 0.000128042 6.42378e-05
0.00272641 0.000127365 6.38483e-05
0.0031854 0.000126792 6.34898e-05
0.0036443 0.000126455 6.32721e-05
0.00410316 0.000126303 6.31716e-05
0.00456201 0.000126276 6.31537e-05
0.00502086 0.000126362 6.32101e-05
0.00547973 0.000126596 6.33634e-05
0.00593866 0.000127047 6.36494e-05
0.00639772 0.000127708 6.40493e-05
0.00685708 0.000128226 6.42828e-05
0.00731699 0.000127084 6.3336e-05
0.00777808 0.000120365 5.80864e-05
0.00824078 9.53261e-05 4.43073e-05
0.00868993 4.51621e-05 2.49491e-05
0.009 1.31032e-05 1.38151e-05
0 0 0
0.00042029 3.06175e-05 3.06175e-05
0.000872022 5.22367e-05 5.22367e-05
0.00133763 6.19161e-05 6.19161e-05
0.0018024 6.42628e-05 6.42628e-05
0.0022649 6.4316e-05 6.4316e-05
0.00272555 6.38715e-05 6.38715e-05
0.00318516 6.34928e-05 6.34928e-05
0.00364426 6.32694e-05 6.32694e-05
0.00410316 6.3168e-05 6.3168e-05
0.004562 6.31501e-05 6.31501e-05
0.00502086 6.32068e-05 6.32068e-05
0.00547983 6.33627e-05 6.33627e-05
0.00593912 6.36601e-05 6.36601e-05
0.00639913 6.40957e-05 6.40957e-05
0.00686052 6.44157e-05 6.44157e-05
0.00732402 6.36233e-05 6.36233e-05
0.00778981 5.8465e-05 5.8465e-05
0.00825106 4.43244e-05 4.43244e-05
0.00869344 2.39089e-05 2.39089e-05
0.009 1.17793e-05 1.17793e-05
0 0 0
0.000418736 1.47973e-18 3.08081e-05
0.000868956 3.32603e-18 5.25048e-05
0.00133406 5.38355e-18 6.21261e-05
0.00180024 7.24217e-18 6.43811e-05
0.00226383 8.7489e-18 6.43668e-05
0.00272511 9.03326e-18 6.38885e-05
0.00318501 8.34979e-18 6.34961e-05
0.00364423 7.62614e-18 6.32684e-05
0.00410316 6.28392e-18 6.31661e-05
0.004562 6.4663e-18 6.31481e-05
0.00502088 6.84045e-18 6.32052e-05
0.00547991 7.20352e-18 6.33632e-05
0.00593938 7.6228e-18 6.36687e-05
0.00639981 7.28774e-18 6.41267e-05
0.00686203 7.07534e-18 6.44976e-05
0.00732682 6.97061e-18 6.3784e-05
0.0077931 7.29808e-18 5.86566e-05
0.00825299 7.66694e-18 4.42973e-05
0.00869365 9.04298e-18 2.33553e-05
0.009 4.65709e-18 1.07911e-05
0 0 0
0.00042029 -3.06175e-05 3.06175e-05
0.000872022 -5.22367e-05 5.22367e-05
0.00133763 -6.19161e-05 6.19161e-05
0.0018024 -6.42628e-05 6.42628e-05
0.0022649 -6.4316e-05 6.4316e-05
0.00272555 -6.38715e-05 6.38715e-05
0.00318516 -6.34928e-05 6.34928e-05
0.00364426 -6.32694e-05 6.32694e-05
0.00410316 -6.3168e-05 6.3168e-05
0.004562 -6.31501e-05 6.31501e-05
0.00502086 -6.32068e-05 6.32068e-05
0.00547983 -6.33627e-05 6.33627e-05
0.00593912 -6.36601e-05 6.36601e-05
0.00639913 -6.40957e-05 6.40957e-05
0.00686052 -6.44157e-05 6.44157e-05
0.00732402 -6.36233e-05 6.36233e-05
0.00778981 -5.8465e-05 5.8465e-05
0.00825106 -4.43244e-05 4.43244e-05
0.00869344 -2.39089e-05 2.39089e-05
0.009 -1.17793e-05 1.17793e-05
0 0 0
0.000425841 -6.89891e-05 3.02502e-05
0.00088566 -0.000111222 5.17704e-05
0.00134723 -0.000124551 6.15482e-05
0.00180758 -0.000128024 6.40688e-05
0.00226721 -0.000128042 6.42378e-05
0.00272641 -0.000127365 6.38483e-05
0.0031854 -0.000126792 6.34898e-05
0.0036443 -0.000126455 6.32721e-05
0.00410316 -0.000126303 6.31716e-05
0.00456201 -0.000126276 6.31537e-05
0.00502086 -0.000126362 6.32101e-05
0.00547973 -0.000126596 6.33634e-05
0.00593866 -0.000127047 6.36494e-05
0.00639772 -0.000127708 6.40493e-05
0.00685708 -0.000128226 6.42828e-05
0.00731699 -0.000127084 6.3336e-05
0.00777808 -0.000120365 5.80864e-05
0.00824078 -9.53261e-05 4.43073e-05
0.00868993 -4.51621e-05 2.49491e-05
0.009 -1.31032e-05 1.38151e-05
0 0 0
0.000467792 -0.000134161 3.07774e-05
0.000908536 -0.000172798 5.2358e-05
0.00135745 -0.000187327 6.19713e-05
0.00181149 -0.000190841 6.42969e-05
0.00226838 -0.000191038 6.43423e-05
0.00272658 -0.000190431 6.38866e-05
0.0031853 -0.000189888 6.35001e-05
0.00364419 -0.000189561 6.32723e-05
0.00410311 -0.000189411 6.31689e-05
0.00456203 -0.000189385 6.31507e-05
0.00502095 -0.00018947 6.32084e-05
0.00547986 -0.000189701 6.33672e-05
0.00593869 -0.000190135 6.36701e-05
0.00639722 -0.000190756 6.41124e-05
0.00685493 -0.000191159 6.44329e-05
0.00731072 -0.000189945 6.36214e-05
0.00776261 -0.000182568 5.84875e-05
0.00820643 -0.000160008 4.44615e-05
0.00865372 -6.7844e-05 2.42701e-05
0.009 3.55318e-06 1.25684e-05
0 0 0
0.000466344 0.000134842 -2.46352e-19
0.000905467 0.000173865 -2.70834e-19
0.00135381 0.000188038 3.07934e-19
0.00180924 0.000191241 9.9814e-19
0.00226725 0.000191205 1.50747e-18
0.0027261 0.000190489 1.5407e-18
0.00318514 0.000189901 1.30002e-18
0.00364414 0.000189559 7.89072e-19
0.0041031 0.000189406 -4.69242e-20
0.00456203 0.000189379 4.08368e-19
0.00502096 0.000189465 5.15375e-19
0.00547994 0.000189704 6.2585e-19
0.00593897 0.000190165 9.22796e-19
0.00639795 0.000190857 -4.45499e-19
0.0068565 0.000191422 -6.89468e-19
0.00731353 0.000190471 -4.08175e-19
0.00776576 0.000183351 -2.94026e-19
0.008208 0.000160228 -9.96933e-22
0.00865364 6.60766e-05 8.6166e-19
0.009 -6.96741e-06 2.67761e-18
0 0 0
0.000424224 6.94694e-05 -1.73686e-18
0.000882589 0.000111836 -2.4161e-18
0.00134371 0.000125028 -1.19802e-18
0.00180543 0.00012828 1.15589e-18
0.00226614 0.000128151 3.0402e-18
0.00272597 0.000127401 2.82698e-18
0.00318525 0.000126799 9.51282e-19
0.00364426 0.000126454 -1.44325e-18
0.00410315 0.000126299 -3.15133e-18
0.00456201 0.000126272 -3.38645e-18
0.00502088 0.000126358 -2.39418e-18
0.00547981 0.000126598 -2.3457e-18
0.00593892 0.000127065 -3.13734e-18
0.00639841 0.000127773 -6.22009e-18
0.00685857 0.000128398 -9.11931e-18
0.00731972 0.000127439 -1.03338e-17
0.0077813 0.000120842 -9.59985e-18
0.00824282 9.53726e-05 -7.75801e-18
0.00869042 4.39494e-05 -3.00001e-18
0.009 1.08987e-05 2.16768e-18
0 0 0
0.000418736 3.08081e-05 -2.59818e-18
0.000868956 5.25048e-05 -3.03418e-18
0.00133406 6.21261e-05 -9.10241e-19
0.00180024 6.43811e-05 2.92366e-18
0.00226383 6.43668e-05 5.65398e-18
0.00272511 6.38885e-05 5.45544e-18
0.00318501 6.34961e-05 2.57913e-18
0.00364423 6.32684e-05 -1.07504e-18
0.00410316 6.31661e-05 -3.40944e-18
0.004562 6.31481e-05 -2.83875e-18
0.00502088 6.32052e-05 -6.19045e-19
0.00547991 6.33632e-05 6.02989e-19
0.00593938 6.36687e-05 -4.01142e-20
0.00639981 6.41267e-05 -4.19348e-18
0.00686203 6.44976e-05 -7.88947e-18
0.00732682 6.3784e-05 -9.46548e-18
0.0077931 5.86566e-05 -8.53472e-18
0.00825299 4.42973e-05 -5.59534e-18
0.00869365 2.33553e-05 9.14841e-19
0.009 1.07911e-05 3.9324e-18
0 0 0
0.000417198 -6.65275e-19 -3.23574e-18
0.000865889 -8.57504e-19 -4.37635e-18
0.00133047 -2.79936e-19 -2.04969e-18
0.00179806 3.31096e-19 1.72591e-18
0.00226276 9.53352e-19 4.50895e-18
0.00272467 9.99181e-19 4.32678e-18
0.00318486 4.33386e-19 1.22703e-18
0.00364419 -3.22528e-19 -2.41253e-18
0.00410315 -7.91079e-19 -3.80979e-18
0.004562 -2.95842e-19 -1.97615e-18
0.00502089 6.26505e-19 1.71127e-18
0.00547998 1.44699e-18 4.85709e-18
0.00593963 1.73289e-18 5.45523e-18
0.00640049 1.55608e-18 2.08893e-18
0.00686355 9.66924e-19 -1.23743e-18
0.00732965 2.60925e-19 -2.77781e-18
0.0077964 7.46417e-19 -1.50288e-18
0.00825483 1.13126e-18 1.88247e-18
0.00869372 3.63022e-18 7.50204e-18
0.009 3.04652e-18 5.53599e-18
0 0 0
0.000418736 -3.08081e-05 -3.18156e-18
0.000868956 -5.25048e-05 -4.36028e-18
0.00133406 -6.21261e-05 -2.87874e-18
0.00180024 -6.43811e-05 2.11233e-19
0.00226383 -6.43668e-05 2.55351e-18
0.00272511 -6.38885e-05 2.24586e-18
0.00318501 -6.34961e-05 -1.81679e-19
0.00364423 -6.32684e-05 -2.78188e-18
0.00410316 -6.31661e-05 -3.50935e-18
0.004562 -6.31481e-05 -7.03563e-19
0.00502088 -6.32052e-05 4.1001e-18
0.00547991 -6.33632e-05 8.21991e-18
0.00593938 -6.36687e-05 9.815e-18
0.00639981 -6.41267e-05 8.05501e-18
0.00686203 -6.44976e-05 5.98026e-18
0.00732682 -6.3784e-05 5.16118e-18
0.0077931 -5.86566e-05 6.38839e-18
0.00825299 -4.42973e-05 9.20463e-18
0.00869365 -2.33553e-05 1.25654e-17
0.009 -1.07911e-05 5.95711e-18
0 0 0
0.000424224 -6.94694e-05 -1.77236e-18
0.000882589 -0.000111836 -2.2401e-18
0.00134371 -0.000125028 -1.24069e-18
0.00180543 -0.00012828 9.18034e-19
0.00226614 -0.000128151 2.44417e-18
0.00272597 -0.000127401 2.45758e-18
0.00318525 -0.000126799 8.51169e-19
0.00364426 -0.000126454 -4.61648e-19
0.00410315 -0.000126299 -5.61174e-19
0.00456201 -0.000126272 1.55797e-18
0.00502088 -0.000126358 5.15777e-18
0.00547981 -0.000126598 8.39356e-18
0.00593892 -0.000127065 1.03459e-17
0.00639841 -0.000127773 9.48224e-18
0.00685857 -0.000128398 8.51724e-18
0.00731972 -0.000127439 8.53182e-18
0.0077813 -0.000120842 9.43267e-18
0.00824282 -9.53726e-05 1.12144e-17
0.00869042 -4.39494e-05 1.26592e-17
0.009 -1.08987e-05 5.18967e-18
0 0 0
0.000466344 -0.000134842 -4.79686e-19
0.000905467 -0.000173865 -8.16265e-19
0.00135381 -0.000188038 -6.57511e-19
0.00180924 -0.000191241 -6.45128e-20
0.00226725 -0.000191205 -1.04098e-20
0.0027261 -0.000190489 3.50542e-20
0.00318514 -0.000189901 7.9563e-20
0.00364414 -0.000189559 -1.79207e-19
0.0041031 -0.000189406 1.01607e-19
0.00456203 -0.000189379 6.60046e-19
0.00502096 -0.000189465 1.52126e-18
0.00547994 -0.000189704 1.94796e-18
0.00593897 -0.000190165 2.79942e-18
0.00639795 -0.000190857 2.82261e-18
0.0068565 -0.000191422 2.90116e-18
0.00731353 -0.000190471 2.61744e-18
0.00776576 -0.000183351 2.7564e-18
0.008208 -0.000160228 2.81046e-18
0.00865364 -6.60766e-05 3.66588e-18
0.009 6.96741e-06 1.71713e-18
0 0 0
0.000467792 0.000134161 -3.07774e-05