<?xml version="1.0"?>
<VTKFile type="UnstructuredGrid" version="0.1" byte_order="LittleEndian">
<UnstructuredGrid>
<Piece NumberOfPoints="1029" NumberOfCells="720">
<Points>
<DataArray type="Float32" NumberOfComponents="3" format="ascii">
0 0 0
0.005 0 0
0.01 0 0
0.015 0 0
0.02 0 0
0.025 0 0
0.03 0 0
0.035 0 0
0.04 0 0
0.045 0 0
0.05 0 0
0.055 0 0
0.06 0 0
0.065 0 0
0.07 0 0
0.075 0 0
0.08 0 0
0.085 0 0
0.09 0 0
0.095 0 0
0.1 0 0
0 0.005 0
0.005 0.005 0
0.01 0.005 0
0.015 0.005 0
0.02 0.005 0
0.025 0.005 0
0.03 0.005 0
0.035 0.005 0
0.04 0.005 0
0.045 0.005 0
0.05 0.005 0
0.055 0.005 0
0.06 0.005 0
0.065 0.005 0
0.07 0.005 0
0.075 0.005 0
0.08 0.005 0
0.085 0.005 0
0.09 0.005 0
0.095 0.005 0
0.1 0.005 0
0 0.01 0
0.005 0.01 0
0.01 0.01 0
0.015 0.01 0
0.02 0.01 0
0.025 0.01 0
0.03 0.01 0
0.035 0.01 0
0.04 0.01 0
0.045 0.01 0
0.05 0.01 0
0.055 0.01 0
0.06 0.01 0
0.065 0.01 0
0.07 0.01 0
0.075 0.01 0
0.08 0.01 0
0.085 0.01 0
0.09 0.01 0
0.095 0.01 0
0.1 0.01 0
0 0.015 0
0.005 0.015 0
0.01 0.015 0
0.015 0.015 0
0.02 0.015 0
0.025 0.015 0
0.03 0.015 0
0.035 0.015 0
0.04 0.015 0
0.045 0.015 0
0.05 0.015 0
0.055 0.015 0
0.06 0.015 0
0.065 0.015 0
0.07 0.015 0
0.075 0.015 0
0.08 0.015 0
0.085 0.015 0
0.09 0.015 0
0.095 0.015 0
0.1 0.015 0
0 0.02 0
0.005 0.02 0
0.01 0.02 0
0.015 0.02 0
0.02 0.02 0
0.025 0.02 0
0.03 0.02 0
0.035 0.02 0
0.04 0.02 0
0.045 0.02 0
0.05 0.02 0
0.055 0.02 0
0.06 0.02 0
0.065 0.02 0
0.07 0.02 0
0.075 0.02 0
0.08 0.02 0
0.085 0.02 0
0.09 0.02 0
0.095 0.02 0
0.1 0.02 0
0 0.025 0
0.005 0.025 0
0.01 0.025 0
0.015 0.025 0
0.02 0.025 0
0.025 0.025 0
0.03 0.025 0
0.035 0.025 0
0.04 0.025 0
0.045 0.025 0
0.05 0.025 0
0.055 0.025 0
0.06 0.025 0
0.065 0.025 0
0.07 0.025 0
0.075 0.025 0
0.08 0.025 0
0.085 0.025 0
0.09 0.025 0
0.095 0.025 0
0.1 0.025 0
0 0.03 0
0.005 0.03 0
0.01 0.03 0
0.015 0.03 0
0.02 0.03 0
0.025 0.03 0
0.03 0.03 0
0.035 0.03 0
0.04 0.03 0
0.045 0.03 0
0.05 0.03 0
0.055 0.03 0
0.06 0.03 0
0.065 0.03 0
0.07 0.03 0
0.075 0.03 0
0.08 0.03 0
0.085 0.03 0
0.09 0.03 0
0.095 0.03 0
0.1 0.03 0
0 0 0.005
0.005 0 0.005
0.01 0 0.005
0.015 0 0.005
0.02 0 0.005
0.025 0 0.005
0.03 0 0.005
0.035 0 0.005
0.04 0 0.005
0.045 0 0.005
0.05 0 0.005
0.055 0 0.005
0.06 0 0.005
0.065 0 0.005
0.07 0 0.005
0.075 0 0.005
0.08 0 0.005
0.085 0 0.005
0.09 0 0.005
0.095 0 0.005
0.1 0 0.005
0 0.005 0.005
0.005 0.005 0.005
0.01 0.005 0.005
0.015 0.005 0.005
0.02 0.005 0.005
0.025 0.005 0.005
0.03 0.005 0.005
0.035 0.005 0.005
0.04 0.005 0.005
0.045 0.005 0.005
0.05 0.005 0.005
0.055 0.005 0.005
0.06 0.005 0.005
0.065 0.005 0.005
0.07 0.005 0.005
0.075 0.005 0.005
0.08 0.005 0.005
0.085 0.005 0.005
0.09 0.005 0.005
0.095 0.005 0.005
0.1 0.005 0.005
0 0.01 0.005
0.005 0.01 0.005
0.01 0.01 0.005
0.015 0.01 0.005
0.02 0.01 0.005
0.025 0.01 0.005
0.03 0.01 0.005
0.035 0.01 0.005
0.04 0.01 0.005
0.045 0.01 0.005
0.05 0.01 0.005
0.055 0.01 0.005
0.06 0.01 0.005
0.065 0.01 0.005
0.07 0.01 0.005
0.075 0.01 0.005
0.08 0.01 0.005
0.085 0.01 0.005
0.09 0.01 0.005
0.095 0.01 0.005
0.1 0.01 0.005
0 0.015 0.005
0.005 0.015 0.005
0.01 0.015 0.005
0.015 0.015 0.005
0.02 0.015 0.005
0.025 0.015 0.005
0.03 0.015 0.005
0.035 0.015 0.005
0.04 0.015 0.005
0.045 0.015 0.005
0.05 0.015 0.005
0.055 0.015 0.005
0.06 0.015 0.005
0.065 0.015 0.005
0.07 0.015 0.005
0.075 0.015 0.005
0.08 0.015 0.005
0.085 0.015 0.005
0.09 0.015 0.005
0.095 0.015 0.005
0.1 0.015 0.005
0 0.02 0.005
0.005 0.02 0.005
0.01 0.02 0.005
0.015 0.02 0.005
0.02 0.02 0.005
0.025 0.02 0.005
0.03 0.02 0.005
0.035 0.02 0.005
0.04 0.02 0.005
0.045 0.02 0.005
0.05 0.02 0.005
0.055 0.02 0.005
0.06 0.02 0.005
0.065 0.02 0.005
0.07 0.02 0.005
0.075 0.02 0.005
0.08 0.02 0.005
0.085 0.02 0.005
0.09 0.02 0.005
0.095 0.02 0.005
0.1 0.02 0.005
0 0.025 0.005
0.005 0.025 0.005
0.01 0.025 0.005
0.015 0.025 0.005
0.02 0.025 0.005
0.025 0.025 0.005
0.03 0.025 0.005
0.035 0.025 0.005
0.04 0.025 0.005
0.045 0.025 0.005
0.05 0.025 0.005
0.055 0.025 0.005
0.06 0.025 0.005
0.065 0.025 0.005
0.07 0.025 0.005
0.075 0.025 0.005
0.08 0.025 0.005
0.085 0.025 0.005
0.09 0.025 0.005
0.095 0.025 0.005
0.1 0.025 0.005
0 0.03 0.005
0.005 0.03 0.005
0.01 0.03 0.005
0.015 0.03 0.005
0.02 0.03 0.005
0.025 0.03 0.005
0.03 0.03 0.005
0.035 0.03 0.005
0.04 0.03 0.005
0.045 0.03 0.005
0.05 0.03 0.005
0.055 0.03 0.005
0.06 0.03 0.005
0.065 0.03 0.005
0.07 0.03 0.005
0.075 0.03 0.005
0.08 0.03 0.005
0.085 0.03 0.005
0.09 0.03 0.005
0.095 0.03 0.005
0.1 0.03 0.005
0 0 0.01
0.005 0 0.01
0.01 0 0.01
0.015 0 0.01
0.02 0 0.01
0.025 0 0.01
0.03 0 0.01
0.035 0 0.01
0.04 0 0.01
0.045 0 0.01
0.05 0 0.01
0.055 0 0.01
0.06 0 0.01
0.065 0 0.01
0.07 0 0.01
0.075 0 0.01
0.08 0 0.01
0.085 0 0.01
0.09 0 0.01
0.095 0 0.01
0.1 0 0.01
0 0.005 0.01
0.005 0.005 0.01
0.01 0.005 0.01
0.015 0.005 0.01
0.02 0.005 0.01
0.025 0.005 0.01
0.03 0.005 0.01
0.035 0.005 0.01
0.04 0.005 0.01
0.045 0.005 0.01
0.05 0.005 0.01
0.055 0.005 0.01
0.06 0.005 0.01
0.065 0.005 0.01
0.07 0.005 0.01
0.075 0.005 0.01
0.08 0.005 0.01
0.085 0.005 0.01
0.09 0.005 0.01
0.095 0.005 0.01
0.1 0.005 0.01
0 0.01 0.01
0.005 0.01 0.01
0.01 0.01 0.01
0.015 0.01 0.01
0.02 0.01 0.01
0.025 0.01 0.01
0.03 0.01 0.01
0.035 0.01 0.01
0.04 0.01 0.01
0.045 0.01 0.01
0.05 0.01 0.01
0.055 0.01 0.01
0.06 0.01 0.01
0.065 0.01 0.01
0.07 0.01 0.01
0.075 0.01 0.01
0.08 0.01 0.01
0.085 0.01 0.01
0.09 0.01 0.01
0.095 0.01 0.01
0.1 0.01 0.01
0 0.015 0.01
0.005 0.015 0.01
0.01 0.015 0.01
0.015 0.015 0.01
0.02 0.015 0.01
0.025 0.015 0.01
0.03 0.015 0.01
0.035 0.015 0.01
0.04 0.015 0.01
0.045 0.015 0.01
0.05 0.015 0.01
0.055 0.015 0.01
0.06 0.015 0.01
0.065 0.015 0.01
0.07 0.015 0.01
0.075 0.015 0.01
0.08 0.015 0.01
0.085 0.015 0.01
0.09 0.015 0.01
0.095 0.015 0.01
0.1 0.015 0.01
0 0.02 0.01
0.005 0.02 0.01
0.01 0.02 0.01
0.015 0.02 0.01
0.02 0.02 0.01
0.025 0.02 0.01
0.03 0.02 0.01
0.035 0.02 0.01
0.04 0.02 0.01
0.045 0.02 0.01
0.05 0.02 0.01
0.055 0.02 0.01
0.06 0.02 0.01
0.065 0.02 0.01
0.07 0.02 0.01
0.075 0.02 0.01
0.08 0.02 0.01
0.085 0.02 0.01
0.09 0.02 0.01
0.095 0.02 0.01
0.1 0.02 0.01
0 0.025 0.01
0.005 0.025 0.01
0.01 0.025 0.01
0.015 0.025 0.01
0.02 0.025 0.01
0.025 0.025 0.01
0.03 0.025 0.01
0.035 0.025 0.01
0.04 0.025 0.01
0.045 0.025 0.01
0.05 0.025 0.01
0.055 0.025 0.01
0.06 0.025 0.01
0.065 0.025 0.01
0.07 0.025 0.01
0.075 0.025 0.01
0.08 0.025 0.01
0.085 0.025 0.01
0.09 0.025 0.01
0.095 0.025 0.01
0.1 0.025 0.01
0 0.03 0.01
0.005 0.03 0.01
0.01 0.03 0.01
0.015 0.03 0.01
0.02 0.03 0.01
0.025 0.03 0.01
0.03 0.03 0.01
0.035 0.03 0.01
0.04 0.03 0.01
0.045 0.03 0.01
0.05 0.03 0.01
0.055 0.03 0.01
0.06 0.03 0.01
0.065 0.03 0.01
0.07 0.03 0.01
0.075 0.03 0.01
0.08 0.03 0.01
0.085 0.03 0.01
0.09 0.03 0.01
0.095 0.03 0.01
0.1 0.03 0.01
0 0 0.015
0.005 0 0.015
0.01 0 0.015
0.015 0 0.015
0.02 0 0.015
0.025 0 0.015
0.03 0 0.015
0.035 0 0.015
0.04 0 0.015
0.045 0 0.015
0.05 0 0.015
0.055 0 0.015
0.06 0 0.015
0.065 0 0.015
0.07 0 0.015
0.075 0 0.015
0.08 0 0.015
0.085 0 0.015
0.09 0 0.015
0.095 0 0.015
0.1 0 0.015
0 0.005 0.015
0.005 0.005 0.015
0.01 0.005 0.015
0.015 0.005 0.015
0.02 0.005 0.015
0.025 0.005 0.015
0.03 0.005 0.015
0.035 0.005 0.015
0.04 0.005 0.015
0.045 0.005 0.015
0.05 0.005 0.015
0.055 0.005 0.015
0.06 0.005 0.015
0.065 0.005 0.015
0.07 0.005 0.015
0.075 0.005 0.015
0.08 0.005 0.015
0.085 0.005 0.015
0.09 0.005 0.015
0.095 0.005 0.015
0.1 0.005 0.015
0 0.01 0.015
0.005 0.01 0.015
0.01 0.01 0.015
0.015 0.01 0.015
0.02 0.01 0.015
0.025 0.01 0.015
0.03 0.01 0.015
0.035 0.01 0.015
0.04 0.01 0.015
0.045 0.01 0.015
0.05 0.01 0.015
0.055 0.01 0.015
0.06 0.01 0.015
0.065 0.01 0.015
0.07 0.01 0.015
0.075 0.01 0.015
0.08 0.01 0.015
0.085 0.01 0.015
0.09 0.01 0.015
0.095 0.01 0.015
0.1 0.01 0.015
0 0.015 0.015
0.005 0.015 0.015
0.01 0.015 0.015
0.015 0.015 0.015
0.02 0.015 0.015
0.025 0.015 0.015
0.03 0.015 0.015
0.035 0.015 0.015
0.04 0.015 0.015
0.045 0.015 0.015
0.05 0.015 0.015
0.055 0.015 0.015
0.06 0.015 0.015
0.065 0.015 0.015
0.07 0.015 0.015
0.075 0.015 0.015
0.08 0.015 0.015
0.085 0.015 0.015
0.09 0.015 0.015
0.095 0.015 0.015
0.1 0.015 0.015
0 0.02 0.015
0.005 0.02 0.015
0.01 0.02 0.015
0.015 0.02 0.015
0.02 0.02 0.015
0.025 0.02 0.015
0.03 0.02 0.015
0.035 0.02 0.015
0.04 0.02 0.015
0.045 0.02 0.015
0.05 0.02 0.015
0.055 0.02 0.015
0.06 0.02 0.015
0.065 0.02 0.015
0.07 0.02 0.015
0.075 0.02 0.015
0.08 0.02 0.015
0.085 0.02 0.015
0.09 0.02 0.015
0.095 0.02 0.015
0.1 0.02 0.015
0 0.025 0.015
0.005 0.025 0.015
0.01 0.025 0.015
0.015 0.025 0.015
0.02 0.025 0.015
0.025 0.025 0.015
0.03 0.025 0.015
0.035 0.025 0.015
0.04 0.025 0.015
0.045 0.025 0.015
0.05 0.025 0.015
0.055 0.025 0.015
0.06 0.025 0.015
0.065 0.025 0.015
0.07 0.025 0.015
0.075 0.025 0.015
0.08 0.025 0.015
0.085 0.025 0.015
0.09 0.025 0.015
0.095 0.025 0.015
0.1 0.025 0.015
0 0.03 0.015
0.005 0.03 0.015
0.01 0.03 0.015
0.015 0.03 0.015
0.02 0.03 0.015
0.025 0.03 0.015
0.03 0.03 0.015
0.035 0.03 0.015
0.04 0.03 0.015
0.045 0.03 0.015
0.05 0.03 0.015
0.055 0.03 0.015
0.06 0.03 0.015
0.065 0.03 0.015
0.07 0.03 0.015
0.075 0.03 0.015
0.08 0.03 0.015
0.085 0.03 0.015
0.09 0.03 0.015
0.095 0.03 0.015
0.1 0.03 0.015
0 0 0.02
0.005 0 0.02
0.01 0 0.02
0.015 0 0.02
0.02 0 0.02
0.025 0 0.02
0.03 0 0.02
0.035 0 0.02
0.04 0 0.02
0.045 0 0.02
0.05 0 0.02
0.055 0 0.02
0.06 0 0.02
0.065 0 0.02
0.07 0 0.02
0.075 0 0.02
0.08 0 0.02
0.085 0 0.02
0.09 0 0.02
0.095 0 0.02
0.1 0 0.02
0 0.005 0.02
0.005 0.005 0.02
0.01 0.005 0.02
0.015 0.005 0.02
0.02 0.005 0.02
0.025 0.005 0.02
0.03 0.005 0.02
0.035 0.005 0.02
0.04 0.005 0.02
0.045 0.005 0.02
0.05 0.005 0.02
0.055 0.005 0.02
0.06 0.005 0.02
0.065 0.005 0.02
0.07 0.005 0.02
0.075 0.005 0.02
0.08 0.005 0.02
0.085 0.005 0.02
0.09 0.005 0.02
0.095 0.005 0.02
0.1 0.005 0.02
0 0.01 0.02
0.005 0.01 0.02
0.01 0.01 0.02
0.015 0.01 0.02
0.02 0.01 0.02
0.025 0.01 0.02
0.03 0.01 0.02
0.035 0.01 0.02
0.04 0.01 0.02
0.045 0.01 0.02
0.05 0.01 0.02
0.055 0.01 0.02
0.06 0.01 0.02
0.065 0.01 0.02
0.07 0.01 0.02
0.075 0.01 0.02
0.08 0.01 0.02
0.085 0.01 0.02
0.09 0.01 0.02
0.095 0.01 0.02
[...]
<PointData Vectors="Displacement">
<DataArray type="Float32" Name="Displacement" NumberOfComponents="3" format="ascii">
0 0 0
0.00161318 0.000505345 0.000505345
0.00301635 0.000612071 0.000612071
0.00444574 0.000660075 0.000660075
0.00591719 0.000671564 0.000671564
0.00741329 0.000673706 0.000673706
0.00892142 0.000673213 0.000673213
0.0104343 0.000672574 0.000672574
0.0119488 0.000672183 0.000672183
0.0134637 0.000672004 0.000672004
0.0149787 0.000671943 0.000671943
0.0164936 0.000671944 0.000671944
0.0180085 0.000671994 0.000671994
0.0195232 0.000672097 0.000672097
0.0210373 0.000672223 0.000672223
0.0225498 0.00067212 0.00067212
0.024059 0.00067099 0.00067099
0.0255618 0.000665745 0.000665745
0.0270563 0.000652362 0.000652362
0.0285596 0.00059372 0.00059372
0.03 0.000548221 0.000548221
0 0 0
0.0014904 0.000273137 0.000510099
0.00295484 0.000407754 0.00062087
0.00441948 0.000442725 0.000662512
0.00590763 0.000451027 0.000672611
0.00741043 0.000450844 0.000673954
0.00892085 0.000449572 0.000673254
0.0104344 0.000448659 0.00067256
0.0119489 0.000448205 0.000672168
0.0134638 0.00044802 0.000671995
0.0149787 0.000447963 0.000671937
0.0164936 0.000447969 0.00067194
0.0180085 0.000448027 0.000671991
0.0195232 0.000448161 0.000672098
0.0210376 0.000448381 0.000672248
0.0225509 0.000448565 0.000672236
0.0240622 0.000447931 0.000671313
0.0255698 0.000444295 0.000666776
0.0270748 0.000429151 0.0006544
0.028579 0.00039482 0.000591871
0.03 0.000372115 0.000541678
0 0 0
0.00147065 0.000124444 0.000528173
0.00291005 0.000198002 0.000632867
0.00439236 0.000223084 0.000669118
0.0058946 0.000226932 0.000675017
0.00740535 0.000226281 0.000674733
0.00891918 0.000225161 0.000673424
0.0104339 0.000224471 0.000672566
0.0119489 0.000224146 0.000672145
0.0134638 0.000224019 0.000671977
0.0149787 0.000223982 0.000671926
0.0164936 0.000223988 0.000671933
0.0180085 0.00022403 0.000671987
0.0195234 0.000224128 0.000672112
0.0210382 0.000224307 0.000672332
0.0225526 0.000224503 0.000672526
0.0240659 0.0002243 0.00067215
0.0255766 0.00022176 0.000668503
0.0270805 0.00021276 0.000656685
0.0285805 0.000197498 0.000589066
0.03 0.000188154 0.00053306
0 0 0
0.00146561 -6.25682e-19 0.000533537
0.00289876 -1.7409e-18 0.000638806
0.00438108 -2.3475e-18 0.000671935
0.00588897 -1.83774e-18 0.000676297
0.00740294 -5.81227e-19 0.000675135
0.00891834 1.2063e-18 0.000673529
0.0104337 2.92021e-18 0.000672577
0.0119488 4.667e-18 0.000672137
0.0134638 4.67045e-18 0.000671969
0.0149787 3.73521e-18 0.000671921
0.0164936 7.94088e-19 0.000671929
0.0180085 -1.54031e-18 0.000671986
0.0195235 -3.40049e-18 0.000672122
0.0210385 -4.10231e-18 0.000672378
0.0225533 -2.74341e-18 0.000672682
0.0240675 -3.85373e-19 0.000672531
0.0255787 3.19655e-18 0.000669276
0.0270815 5.9355e-18 0.000657228
0.0285803 6.98754e-18 0.000587824
0.03 3.7468e-18 0.000530233
0 0 0
0.00147065 -0.000124444 0.000528173
0.00291005 -0.000198002 0.000632867
0.00439236 -0.000223084 0.000669118
0.0058946 -0.000226932 0.000675017
0.00740535 -0.000226281 0.000674733
0.00891918 -0.000225161 0.000673424
0.0104339 -0.000224471 0.000672566
0.0119489 -0.000224146 0.000672145
0.0134638 -0.000224019 0.000671977
0.0149787 -0.000223982 0.000671926
0.0164936 -0.000223988 0.000671933
0.0180085 -0.00022403 0.000671987
0.0195234 -0.000224128 0.000672112
0.0210382 -0.000224307 0.000672332
0.0225526 -0.000224503 0.000672526
0.0240659 -0.0002243 0.00067215
0.0255766 -0.00022176 0.000668503
0.0270805 -0.00021276 0.000656685
0.0285805 -0.000197498 0.000589066
0.03 -0.000188154 0.00053306
0 0 0
0.0014904 -0.000273137 0.000510099
0.00295484 -0.000407754 0.00062087
0.00441948 -0.000442725 0.000662512
0.00590763 -0.000451027 0.000672611
0.00741043 -0.000450844 0.000673954
0.00892085 -0.000449572 0.000673254
0.0104344 -0.000448659 0.00067256
0.0119489 -0.000448205 0.000672168
0.0134638 -0.00044802 0.000671995
0.0149787 -0.000447963 0.000671937
0.0164936 -0.000447969 0.00067194
0.0180085 -0.000448027 0.000671991
0.0195232 -0.000448161 0.000672098
0.0210376 -0.000448381 0.000672248
0.0225509 -0.000448565 0.000672236
0.0240622 -0.000447931 0.000671313
0.0255698 -0.000444295 0.000666776
0.0270748 -0.000429151 0.0006544
0.028579 -0.00039482 0.000591871
0.03 -0.000372115 0.000541678
0 0 0
0.00161318 -0.000505345 0.000505345
0.00301635 -0.000612071 0.000612071
0.00444574 -0.000660075 0.000660075
0.00591719 -0.000671564 0.000671564
0.00741329 -0.000673706 0.000673706
0.00892142 -0.000673213 0.000673213
0.0104343 -0.000672574 0.000672574
0.0119488 -0.000672183 0.000672183
0.0134637 -0.000672004 0.000672004
0.0149787 -0.000671943 0.000671943
0.0164936 -0.000671944 0.000671944
0.0180085 -0.000671994 0.000671994
0.0195232 -0.000672097 0.000672097
0.0210373 -0.000672223 0.000672223
0.0225498 -0.00067212 0.00067212
0.024059 -0.00067099 0.00067099
0.0255618 -0.000665745 0.000665745
0.0270563 -0.000652362 0.000652362
0.0285596 -0.00059372 0.00059372
0.03 -0.000548221 0.000548221
0 0 0
0.0014904 0.000510099 0.000273137
0.00295484 0.00062087 0.000407754
0.00441948 0.000662512 0.000442725
0.00590763 0.000672611 0.000451027
0.00741043 0.000673954 0.000450844
0.00892085 0.000673254 0.000449572
0.0104344 0.00067256 0.000448659
0.0119489 0.000672168 0.000448205
0.0134638 0.000671995 0.00044802
0.0149787 0.000671937 0.000447963
0.0164936 0.00067194 0.000447969
0.0180085 0.000671991 0.000448027
0.0195232 0.000672098 0.000448161
0.0210376 0.000672248 0.000448381
0.0225509 0.000672236 0.000448565
0.0240622 0.000671313 0.000447931
0.0255698 0.000666776 0.000444295
0.0270748 0.0006544 0.000429151
0.028579 0.000591871 0.00039482
0.03 0.000541678 0.000372115
0 0 0
0.00136246 0.000271728 0.000271728
0.00289463 0.0004072 0.0004072
0.00439518 0.000442355 0.000442355
0.00589885 0.000450765 0.000450765
0.00740794 0.000450747 0.000450747
0.00892039 0.000449533 0.000449533
0.0104344 0.000448649 0.000448649
0.011949 0.000448203 0.000448203
0.0134639 0.00044802 0.00044802
0.0149787 0.000447963 0.000447963
0.0164936 0.000447969 0.000447969
0.0180085 0.000448026 0.000448026
0.0195232 0.000448156 0.000448156
0.0210378 0.000448369 0.000448369
0.0225519 0.000448534 0.000448534
0.0240652 0.000447878 0.000447878
0.0255775 0.000444289 0.000444289
0.027094 0.000429165 0.000429165
0.0285999 0.000394607 0.000394607
0.03 0.000371343 0.000371343
0 0 0
0.00134215 0.000121207 0.000279729
0.00285058 0.00019526 0.000414953
0.00436929 0.000221601 0.000446315
0.00588676 0.000226277 0.000452308
0.00740325 0.000226041 0.000451213
0.00891888 0.000225093 0.000449634
0.010434 0.000224458 0.000448648
0.011949 0.000224147 0.000448187
0.0134639 0.000224022 0.000448008
0.0149788 0.000223985 0.000447956
0.0164936 0.000223989 0.000447964
0.0180085 0.000224029 0.000448023
0.0195234 0.000224121 0.000448164
0.0210384 0.00022428 0.00044842
0.0225534 0.000224421 0.000448722
0.0240687 0.000224112 0.000448398
0.0255843 0.000221424 0.000445387
0.0271004 0.000212481 0.000430129
0.0286022 0.000197858 0.000392712
0.03 0.000188887 0.000366628
0 0 0
0.00133644 -3.52781e-18 0.000283388
0.00283963 -7.23686e-18 0.000418643
0.00435863 -9.21469e-18 0.00044842
0.00588151 -8.84484e-18 0.000453178
0.00740104 -4.58106e-18 0.000451501
0.00891811 2.53018e-18 0.000449703
0.0104338 1.00358e-17 0.000448655
0.011949 1.58233e-17 0.000448181
0.0134639 1.56374e-17 0.000448002
0.0149788 1.06707e-17 0.000447952
0.0164936 1.0766e-18 0.000447962
0.0180085 -9.70267e-18 0.000448023
0.0195235 -1.68577e-17 0.00044817
0.0210386 -1.80522e-17 0.000448452
0.0225541 -1.28105e-17 0.00044883
0.0240702 -2.40569e-18 0.00044868
0.0255863 8.94801e-18 0.000445892
0.0271017 1.71524e-17 0.000430412
0.0286023 2.17751e-17 0.000391839
0.03 8.90417e-18 0.000364766
0 0 0
0.00134215 -0.000121207 0.000279729
0.00285058 -0.00019526 0.000414953
0.00436929 -0.000221601 0.000446315
0.00588676 -0.000226277 0.000452308
0.00740325 -0.000226041 0.000451213
0.00891888 -0.000225093 0.000449634
0.010434 -0.000224458 0.000448648
0.011949 -0.000224147 0.000448187
0.0134639 -0.000224022 0.000448008
0.0149788 -0.000223985 0.000447956
0.0164936 -0.000223989 0.000447964
0.0180085 -0.000224029 0.000448023
0.0195234 -0.000224121 0.000448164
0.0210384 -0.00022428 0.00044842
0.0225534 -0.000224421 0.000448722
0.0240687 -0.000224112 0.000448398
0.0255843 -0.000221424 0.000445387
0.0271004 -0.000212481 0.000430129
0.0286022 -0.000197858 0.000392712
0.03 -0.000188887 0.000366628
0 0 0
0.00136246 -0.000271728 0.000271728
0.00289463 -0.0004072 0.0004072
0.00439518 -0.000442355 0.000442355
0.00589885 -0.000450765 0.000450765
0.00740794 -0.000450747 0.000450747
0.00892039 -0.000449533 0.000449533
0.0104344 -0.000448649 0.000448649
0.011949 -0.000448203 0.000448203
0.0134639 -0.00044802 0.00044802
0.0149787 -0.000447963 0.000447963
0.0164936 -0.000447969 0.000447969
0.0180085 -0.000448026 0.000448026
0.0195232 -0.000448156 0.000448156
0.0210378 -0.000448369 0.000448369
0.0225519 -0.000448534 0.000448534
0.0240652 -0.000447878 0.000447878
0.0255775 -0.000444289 0.000444289
0.027094 -0.000429165 0.000429165
0.0285999 -0.000394607 0.000394607
0.03 -0.000371343 0.000371343
0 0 0
0.0014904 -0.000510099 0.000273137
0.00295484 -0.00062087 0.000407754
0.00441948 -0.000662512 0.000442725
0.00590763 -0.000672611 0.000451027
0.00741043 -0.000673954 0.000450844
0.00892085 -0.000673254 0.000449572
0.0104344 -0.00067256 0.000448659
0.0119489 -0.000672168 0.000448205
0.0134638 -0.000671995 0.00044802
0.0149787 -0.000671937 0.000447963
0.0164936 -0.00067194 0.000447969
0.0180085 -0.000671991 0.000448027
0.0195232 -0.000672098 0.000448161
0.0210376 -0.000672248 0.000448381
0.0225509 -0.000672236 0.000448565
0.0240622 -0.000671313 0.000447931
0.0255698 -0.000666776 0.000444295
0.0270748 -0.0006544 0.000429151
0.028579 -0.000591871 0.00039482
0.03 -0.000541678 0.000372115
0 0 0
0.00147065 0.000528173 0.000124444
0.00291005 0.000632867 0.000198002
0.00439236 0.000669118 0.000223084
0.0058946 0.000675017 0.000226932
0.00740535 0.000674733 0.000226281
0.00891918 0.000673424 0.000225161
0.0104339 0.000672566 0.000224471
0.0119489 0.000672145 0.000224146
0.0134638 0.000671977 0.000224019
0.0149787 0.000671926 0.000223982
0.0164936 0.000671933 0.000223988
0.0180085 0.000671987 0.00022403
0.0195234 0.000672112 0.000224128
0.0210382 0.000672332 0.000224307
0.0225526 0.000672526 0.000224503
0.0240659 0.00067215 0.0002243
0.0255766 0.000668503 0.00022176
0.0270805 0.000656685 0.00021276
0.0285805 0.000589066 0.000197498
0.03 0.00053306 0.000188154
0 0 0
0.00134215 0.000279729 0.000121207
0.00285058 0.000414953 0.00019526
0.00436929 0.000446315 0.000221601
0.00588676 0.000452308 0.000226277
0.00740325 0.000451213 0.000226041
0.00891888 0.000449634 0.000225093
0.010434 0.000448648 0.000224458
0.011949 0.000448187 0.000224147
0.0134639 0.000448008 0.000224022
0.0149788 0.000447956 0.000223985
0.0164936 0.000447964 0.000223989
0.0180085 0.000448023 0.000224029
0.0195234 0.000448164 0.000224121
0.0210384 0.00044842 0.00022428
0.0225534 0.000448722 0.000224421
0.0240687 0.000448398 0.000224112
0.0255843 0.000445387 0.000221424
0.0271004 0.000430129 0.000212481
0.0286022 0.000392712 0.000197858
0.03 0.000366628 0.000188887
0 0 0
0.00132301 0.000124413 0.000124413
0.00280532 0.000198287 0.000198287
0.00434303 0.000223363 0.000223363
0.00587469 0.000226968 0.000226968
0.0073987 0.000226252 0.000226252
0.00891744 0.000225136 0.000225136
0.0104337 0.000224458 0.000224458
0.011949 0.00022414 0.00022414
0.0134639 0.000224017 0.000224017
0.0149788 0.000223982 0.000223982
0.0164936 0.000223987 0.000223987
0.0180085 0.000224028 0.000224028
0.0195236 0.000224124 0.000224124
0.0210389 0.000224303 0.000224303
0.022555 0.000224507 0.000224507
0.0240723 0.000224353 0.000224353
0.0255914 0.000221856 0.000221856
0.0271068 0.000212741 0.000212741
0.0286036 0.000197063 0.000197063
0.03 0.000187054 0.000187054
0 0 0
0.00131766 -1.64451e-18 0.000125948
0.00279421 -4.16213e-18 0.000199962
0.00433208 -7.4013e-18 0.000224358
0.00586941 -8.99374e-18 0.000227395
0.0073965 -6.49646e-18 0.00022639
0.00891669 2.34164e-19 0.000225169
0.0104335 8.78444e-18 0.00022446
0.0119489 1.57725e-17 0.000224137
0.0134639 1.67624e-17 0.000224014
0.0149788 1.13764e-17 0.00022398
0.0164936 6.70275e-19 0.000223986
0.0180086 -1.0363e-17 0.000224027
0.0195236 -1.68105e-17 0.000224127
0.0210392 -1.65785e-17 0.000224319
0.0225557 -9.82572e-18 0.000224561
0.0240739 -3.85129e-20 0.000224489
0.0255935 9.78709e-18 0.00022208
0.027108 1.53768e-17 0.000212835
0.0286035 1.79641e-17 0.000196653
0.03 6.91749e-18 0.000186206
0 0 0
0.00132301 -0.000124413 0.000124413
0.00280532 -0.000198287 0.000198287
0.00434303 -0.000223363 0.000223363
0.00587469 -0.000226968 0.000226968
0.0073987 -0.000226252 0.000226252
0.00891744 -0.000225136 0.000225136
0.0104337 -0.000224458 0.000224458
0.011949 -0.00022414 0.00022414
0.0134639 -0.000224017 0.000224017
0.0149788 -0.000223982 0.000223982
0.0164936 -0.000223987 0.000223987
0.0180085 -0.000224028 0.000224028
0.0195236 -0.000224124 0.000224124
0.0210389 -0.000224303 0.000224303
0.022555 -0.000224507 0.000224507
0.0240723 -0.000224353 0.000224353
0.0255914 -0.000221856 0.000221856
0.0271068 -0.000212741 0.000212741
0.0286036 -0.000197063 0.000197063
0.03 -0.000187054 0.000187054
0 0 0
0.00134215 -0.000279729 0.000121207
0.00285058 -0.000414953 0.00019526
0.00436929 -0.000446315 0.000221601
0.00588676 -0.000452308 0.000226277
0.00740325 -0.000451213 0.000226041
0.00891888 -0.000449634 0.000225093
0.010434 -0.000448648 0.000224458
0.011949 -0.000448187 0.000224147
0.0134639 -0.000448008 0.000224022
0.0149788 -0.000447956 0.000223985
0.0164936 -0.000447964 0.000223989
0.0180085 -0.000448023 0.000224029
0.0195234 -0.000448164 0.000224121
0.0210384 -0.00044842 0.00022428
0.0225534 -0.000448722 0.000224421
0.0240687 -0.000448398 0.000224112
0.0255843 -0.000445387 0.000221424
0.0271004 -0.000430129 0.000212481
0.0286022 -0.000392712 0.000197858
0.03 -0.000366628 0.000188887
0 0 0
0.00147065 -0.000528173 0.000124444
0.00291005 -0.000632867 0.000198002
0.00439236 -0.000669118 0.000223084
0.0058946 -0.000675017 0.000226932
0.00740535 -0.000674733 0.000226281
0.00891918 -0.000673424 0.000225161
0.0104339 -0.000672566 0.000224471
0.0119489 -0.000672145 0.000224146
0.0134638 -0.000671977 0.000224019
0.0149787 -0.000671926 0.000223982
0.0164936 -0.000671933 0.000223988
0.0180085 -0.000671987 0.00022403
0.0195234 -0.000672112 0.000224128
0.0210382 -0.000672332 0.000224307
0.0225526 -0.000672526 0.000224503
0.0240659 -0.00067215 0.0002243
0.0255766 -0.000668503 0.00022176
0.0270805 -0.000656685 0.00021276
0.0285805 -0.000589066 0.000197498
0.03 -0.00053306 0.000188154
0 0 0
0.00146561 0.000533537 -4.56661e-19
0.00289876 0.000638806 -8.63896e-19
0.00438108 0.000671935 -8.10008e-19
0.00588897 0.000676297 -8.87095e-19
0.00740294 0.000675135 -4.89731e-19
0.00891834 0.000673529 3.61715e-19
0.0104337 0.000672577 1.33655e-18
0.0119488 0.000672137 1.5635e-18
0.0134638 0.000671969 1.55057e-18
0.0149787 0.000671921 2.36664e-18
0.0164936 0.000671929 1.27407e-18
0.0180085 0.000671986 6.44966e-19
0.0195235 0.000672122 4.61867e-19
0.0210385 0.000672378 -1.4405e-18
0.0225533 0.000672682 -1.00535e-18
0.0240675 0.000672531 7.83457e-19
0.0255787 0.000669276 1.12423e-18
0.0270815 0.000657228 2.19683e-18
0.0285803 0.000587824 2.44072e-18
0.03 0.000530233 2.47429e-18
0 0 0
0.00133644 0.000283388 -1.7182e-19
0.00283963 0.000418643 -7.2702e-20
0.00435863 0.00044842 -6.37738e-19
0.00588151 0.000453178 -1.04245e-18
0.00740104 0.000451501 -1.73834e-18
0.00891811 0.000449703 -1.50318e-18
0.0104338 0.000448655 -2.98748e-19
0.011949 0.000448181 9.22525e-19
0.0134639 0.000448002 2.25381e-18
0.0149788 0.000447952 3.07195e-18
0.0164936 0.000447962 2.74612e-18
0.0180085 0.000448023 2.04233e-18
0.0195235 0.00044817 2.40417e-18
0.0210386 0.000448452 4.0734e-19
0.0225541 0.00044883 5.69273e-19
0.0240702 0.00044868 1.0121e-18
0.0255863 0.000445892 8.95829e-19
0.0271017 0.000430412 5.40944e-19
0.0286023 0.000391839 5.30876e-19
0.03 0.000364766 3.82717e-19
0 0 0
0.00131766 0.000125948 -9.10029e-19
0.00279421 0.000199962 -1.76134e-18
0.00433208 0.000224358 -2.28288e-18
0.00586941 0.000227395 -2.11555e-18
0.0073965 0.00022639 -1.724e-18
0.00891669 0.000225169 -6.04513e-19
0.0104335 0.00022446 1.33513e-18
0.0119489 0.000224137 3.01256e-18
0.0134639 0.000224014 3.94169e-18
0.0149788 0.00022398 4.43045e-18
0.0164936 0.000223986 2.99795e-18
0.0180086 0.000224027 5.38843e-19
0.0195236 0.000224127 -2.05123e-19
0.0210392 0.000224319 -2.44828e-18
0.0225557 0.000224561 -1.76864e-18
0.0240739 0.000224489 -1.47186e-19
0.0255935 0.00022208 1.70094e-18
0.027108 0.000212835 3.01838e-18
0.0286035 0.000196653 4.5405e-18
0.03 0.000186206 1.66457e-18
0 0 0
0.00131237 4.44635e-18 1.19801e-19
0.002783 6.22991e-18 1.5094e-19
0.00432099 3.85362e-18 5.55006e-19
0.00586408 -1.52515e-18 4.18109e-19
0.00739431 -4.86179e-18 2.64695e-19
0.00891595 -4.08207e-18 2.88006e-19
0.0104333 4.08819e-21 3.64599e-19
0.0119489 5.04208e-18 9.25319e-19
0.0134639 6.39561e-18 8.79287e-19
0.0149788 4.32789e-18 1.15895e-18
0.0164937 -5.21956e-19 5.78724e-19
0.0180086 -4.11761e-18 4.18472e-19
0.0195237 -3.48924e-18 1.42339e-18
0.0210394 3.75921e-19 6.11425e-19
0.0225564 5.47294e-18 9.40919e-19
0.0240755 7.20434e-18 1.65435e-18
0.0255957 5.18588e-18 8.47818e-19
0.0271091 -6.30574e-19 6.92636e-19
0.0286032 -4.25663e-18 7.33013e-19
0.03 -9.79335e-19 -3.06887e-19
0 0 0
0.00131766 -0.000125948 1.05137e-18
0.00279421 -0.000199962 2.40046e-18
0.00433208 -0.000224358 2.93165e-18
0.00586941 -0.000227395 3.1266e-18
0.0073965 -0.00022639 2.55467e-18
0.00891669 -0.000225169 9.97533e-19
0.0104335 -0.00022446 -1.70346e-19
0.0119489 -0.000224137 -1.27614e-18
0.0134639 -0.000224014 -2.17205e-18
0.0149788 -0.00022398 -2.26153e-18
0.0164936 -0.000223986 -1.6582e-18
0.0180086 -0.000224027 -6.85177e-21
0.0195236 -0.000224127 2.98495e-18
0.0210392 -0.000224319 3.38548e-18
0.0225557 -0.000224561 3.97952e-18
0.0240739 -0.000224489 2.90876e-18
0.0255935 -0.00022208 7.10707e-19
0.027108 -0.000212835 -2.3683e-18
0.0286035 -0.000196653 -4.3472e-18
0.03 -0.000186206 -1.28166e-18
0 0 0
0.00133644 -0.000283388 3.3778e-19
0.00283963 -0.000418643 5.16622e-19
0.00435863 -0.00044842 1.05105e-18
0.00588151 -0.000453178 1.8703e-18
0.00740104 -0.000451501 1.91029e-18
0.00891811 -0.000449703 1.67473e-18
0.0104338 -0.000448655 1.31094e-18
0.011949 -0.000448181 2.46849e-19
0.0134639 -0.000448002 -6.92247e-19
0.0149788 -0.000447952 -1.47002e-18
0.0164936 -0.000447962 -1.95537e-18
0.0180085 -0.000448023 -1.52404e-18
0.0195235 -0.00044817 2.21187e-19
0.0210386 -0.000448452 1.7972e-19
0.0225541 -0.00044883 9.94285e-19
0.0240702 -0.00044868 2.00338e-18
0.0255863 -0.000445892 7.89789e-19
0.0271017 -0.000430412 3.94056e-19
0.0286023 -0.000391839 -6.76152e-19
0.03 -0.000364766 -6.12733e-19
0 0 0
0.00146561 -0.000533537 8.4775e-19
0.00289876 -0.000638806 1.33729e-18
0.00438108 -0.000671935 1.39345e-18
0.00588897 -0.000676297 1.35274e-18
0.00740294 -0.000675135 6.39463e-19
0.00891834 -0.000673529 -1.65691e-19
0.0104337 -0.000672577 -2.90865e-19
0.0119488 -0.000672137 -6.6615e-19
0.0134638 -0.000671969 -5.70823e-19
0.0149787 -0.000671921 -7.66777e-19
0.0164936 -0.000671929 -6.22298e-19
0.0180085 -0.000671986 7.0054e-20
0.0195235 -0.000672122 1.5779e-18
0.0210385 -0.000672378 1.89672e-18
0.0225533 -0.000672682 2.29804e-18
0.0240675 -0.000672531 1.78372e-18
0.0255787 -0.000669276 6.71855e-19
0.0270815 -0.000657228 -1.43171e-18
0.0285803 -0.000587824 -3.04922e-18
0.03 -0.000530233 -2.89097e-18
0 0 0
0.00147065 0.000528173 -0.000124444
0.00291005 0.000632867 -0.000198002
0.00439236 0.000669118 -0.000223084
0.0058946 0.000675017 -0.000226932
0.00740535 0.000674733 -0.000226281
0.00891918 0.000673424 -0.000225161
0.0104339 0.000672566 -0.000224471
0.0119489 0.000672145 -0.000224146
0.0134638 0.000671977 -0.000224019
0.0149787 0.000671926 -0.000223982
0.0164936 0.000671933 -0.000223988
0.0180085 0.000671987 -0.00022403
0.0195234 0.000672112 -0.000224128
0.0210382 0.000672332 -0.000224307