<?xml version="1.0"?>
<VTKFile type="UnstructuredGrid" version="0.1" byte_order="LittleEndian">
<UnstructuredGrid>
<Piece NumberOfPoints="1029" NumberOfCells="720">
<Points>
<DataArray type="Float32" NumberOfComponents="3" format="ascii">
0 0 0
0.005 0 0
0.01 0 0
0.015 0 0
0.02 0 0
0.025 0 0
0.03 0 0
0.035 0 0
0.04 0 0
0.045 0 0
0.05 0 0
0.055 0 0
0.06 0 0
0.065 0 0
0.07 0 0
0.075 0 0
0.08 0 0
0.085 0 0
0.09 0 0
0.095 0 0
0.1 0 0
0 0.005 0
0.005 0.005 0
0.01 0.005 0
0.015 0.005 0
0.02 0.005 0
0.025 0.005 0
0.03 0.005 0
0.035 0.005 0
0.04 0.005 0
0.045 0.005 0
0.05 0.005 0
0.055 0.005 0
0.06 0.005 0
0.065 0.005 0
0.07 0.005 0
0.075 0.005 0
0.08 0.005 0
0.085 0.005 0
0.09 0.005 0
0.095 0.005 0
0.1 0.005 0
0 0.01 0
0.005 0.01 0
0.01 0.01 0
0.015 0.01 0
0.02 0.01 0
0.025 0.01 0
0.03 0.01 0
0.035 0.01 0
0.04 0.01 0
0.045 0.01 0
0.05 0.01 0
0.055 0.01 0
0.06 0.01 0
0.065 0.01 0
0.07 0.01 0
0.075 0.01 0
0.08 0.01 0
0.085 0.01 0
0.09 0.01 0
0.095 0.01 0
0.1 0.01 0
0 0.015 0
0.005 0.015 0
0.01 0.015 0
0.015 0.015 0
0.02 0.015 0
0.025 0.015 0
0.03 0.015 0
0.035 0.015 0
0.04 0.015 0
0.045 0.015 0
0.05 0.015 0
0.055 0.015 0
0.06 0.015 0
0.065 0.015 0
0.07 0.015 0
0.075 0.015 0
0.08 0.015 0
0.085 0.015 0
0.09 0.015 0
0.095 0.015 0
0.1 0.015 0
0 0.02 0
0.005 0.02 0
0.01 0.02 0
0.015 0.02 0
0.02 0.02 0
0.025 0.02 0
0.03 0.02 0
0.035 0.02 0
0.04 0.02 0
0.045 0.02 0
0.05 0.02 0
0.055 0.02 0
0.06 0.02 0
0.065 0.02 0
0.07 0.02 0
0.075 0.02 0
0.08 0.02 0
0.085 0.02 0
0.09 0.02 0
0.095 0.02 0
0.1 0.02 0
0 0.025 0
0.005 0.025 0
0.01 0.025 0
0.015 0.025 0
0.02 0.025 0
0.025 0.025 0
0.03 0.025 0
0.035 0.025 0
0.04 0.025 0
0.045 0.025 0
0.05 0.025 0
0.055 0.025 0
0.06 0.025 0
0.065 0.025 0
0.07 0.025 0
0.075 0.025 0
0.08 0.025 0
0.085 0.025 0
0.09 0.025 0
0.095 0.025 0
0.1 0.025 0
0 0.03 0
0.005 0.03 0
0.01 0.03 0
0.015 0.03 0
0.02 0.03 0
0.025 0.03 0
0.03 0.03 0
0.035 0.03 0
0.04 0.03 0
0.045 0.03 0
0.05 0.03 0
0.055 0.03 0
0.06 0.03 0
0.065 0.03 0
0.07 0.03 0
0.075 0.03 0
0.08 0.03 0
0.085 0.03 0
0.09 0.03 0
0.095 0.03 0
0.1 0.03 0
0 0 0.005
0.005 0 0.005
0.01 0 0.005
0.015 0 0.005
0.02 0 0.005
0.025 0 0.005
0.03 0 0.005
0.035 0 0.005
0.04 0 0.005
0.045 0 0.005
0.05 0 0.005
0.055 0 0.005
0.06 0 0.005
0.065 0 0.005
0.07 0 0.005
0.075 0 0.005
0.08 0 0.005
0.085 0 0.005
0.09 0 0.005
0.095 0 0.005
0.1 0 0.005
0 0.005 0.005
0.005 0.005 0.005
0.01 0.005 0.005
0.015 0.005 0.005
0.02 0.005 0.005
0.025 0.005 0.005
0.03 0.005 0.005
0.035 0.005 0.005
0.04 0.005 0.005
0.045 0.005 0.005
0.05 0.005 0.005
0.055 0.005 0.005
0.06 0.005 0.005
0.065 0.005 0.005
0.07 0.005 0.005
0.075 0.005 0.005
0.08 0.005 0.005
0.085 0.005 0.005
0.09 0.005 0.005
0.095 0.005 0.005
0.1 0.005 0.005
0 0.01 0.005
0.005 0.01 0.005
0.01 0.01 0.005
0.015 0.01 0.005
0.02 0.01 0.005
0.025 0.01 0.005
0.03 0.01 0.005
0.035 0.01 0.005
0.04 0.01 0.005
0.045 0.01 0.005
0.05 0.01 0.005
0.055 0.01 0.005
0.06 0.01 0.005
0.065 0.01 0.005
0.07 0.01 0.005
0.075 0.01 0.005
0.08 0.01 0.005
0.085 0.01 0.005
0.09 0.01 0.005
0.095 0.01 0.005
0.1 0.01 0.005
0 0.015 0.005
0.005 0.015 0.005
0.01 0.015 0.005
0.015 0.015 0.005
0.02 0.015 0.005
0.025 0.015 0.005
0.03 0.015 0.005
0.035 0.015 0.005
0.04 0.015 0.005
0.045 0.015 0.005
0.05 0.015 0.005
0.055 0.015 0.005
0.06 0.015 0.005
0.065 0.015 0.005
0.07 0.015 0.005
0.075 0.015 0.005
0.08 0.015 0.005
0.085 0.015 0.005
0.09 0.015 0.005
0.095 0.015 0.005
0.1 0.015 0.005
0 0.02 0.005
0.005 0.02 0.005
0.01 0.02 0.005
0.015 0.02 0.005
0.02 0.02 0.005
0.025 0.02 0.005
0.03 0.02 0.005
0.035 0.02 0.005
0.04 0.02 0.005
0.045 0.02 0.005
0.05 0.02 0.005
0.055 0.02 0.005
0.06 0.02 0.005
0.065 0.02 0.005
0.07 0.02 0.005
0.075 0.02 0.005
0.08 0.02 0.005
0.085 0.02 0.005
0.09 0.02 0.005
0.095 0.02 0.005
0.1 0.02 0.005
0 0.025 0.005
0.005 0.025 0.005
0.01 0.025 0.005
0.015 0.025 0.005
0.02 0.025 0.005
0.025 0.025 0.005
0.03 0.025 0.005
0.035 0.025 0.005
0.04 0.025 0.005
0.045 0.025 0.005
0.05 0.025 0.005
0.055 0.025 0.005
0.06 0.025 0.005
0.065 0.025 0.005
0.07 0.025 0.005
0.075 0.025 0.005
0.08 0.025 0.005
0.085 0.025 0.005
0.09 0.025 0.005
0.095 0.025 0.005
0.1 0.025 0.005
0 0.03 0.005
0.005 0.03 0.005
0.01 0.03 0.005
0.015 0.03 0.005
0.02 0.03 0.005
0.025 0.03 0.005
0.03 0.03 0.005
0.035 0.03 0.005
0.04 0.03 0.005
0.045 0.03 0.005
0.05 0.03 0.005
0.055 0.03 0.005
0.06 0.03 0.005
0.065 0.03 0.005
0.07 0.03 0.005
0.075 0.03 0.005
0.08 0.03 0.005
0.085 0.03 0.005
0.09 0.03 0.005
0.095 0.03 0.005
0.1 0.03 0.005
0 0 0.01
0.005 0 0.01
0.01 0 0.01
0.015 0 0.01
0.02 0 0.01
0.025 0 0.01
0.03 0 0.01
0.035 0 0.01
0.04 0 0.01
0.045 0 0.01
0.05 0 0.01
0.055 0 0.01
0.06 0 0.01
0.065 0 0.01
0.07 0 0.01
0.075 0 0.01
0.08 0 0.01
0.085 0 0.01
0.09 0 0.01
0.095 0 0.01
0.1 0 0.01
0 0.005 0.01
0.005 0.005 0.01
0.01 0.005 0.01
0.015 0.005 0.01
0.02 0.005 0.01
0.025 0.005 0.01
0.03 0.005 0.01
0.035 0.005 0.01
0.04 0.005 0.01
0.045 0.005 0.01
0.05 0.005 0.01
0.055 0.005 0.01
0.06 0.005 0.01
0.065 0.005 0.01
0.07 0.005 0.01
0.075 0.005 0.01
0.08 0.005 0.01
0.085 0.005 0.01
0.09 0.005 0.01
0.095 0.005 0.01
0.1 0.005 0.01
0 0.01 0.01
0.005 0.01 0.01
0.01 0.01 0.01
0.015 0.01 0.01
0.02 0.01 0.01
0.025 0.01 0.01
0.03 0.01 0.01
0.035 0.01 0.01
0.04 0.01 0.01
0.045 0.01 0.01
0.05 0.01 0.01
0.055 0.01 0.01
0.06 0.01 0.01
0.065 0.01 0.01
0.07 0.01 0.01
0.075 0.01 0.01
0.08 0.01 0.01
0.085 0.01 0.01
0.09 0.01 0.01
0.095 0.01 0.01
0.1 0.01 0.01
0 0.015 0.01
0.005 0.015 0.01
0.01 0.015 0.01
0.015 0.015 0.01
0.02 0.015 0.01
0.025 0.015 0.01
0.03 0.015 0.01
0.035 0.015 0.01
0.04 0.015 0.01
0.045 0.015 0.01
0.05 0.015 0.01
0.055 0.015 0.01
0.06 0.015 0.01
0.065 0.015 0.01
0.07 0.015 0.01
0.075 0.015 0.01
0.08 0.015 0.01
0.085 0.015 0.01
0.09 0.015 0.01
0.095 0.015 0.01
0.1 0.015 0.01
0 0.02 0.01
0.005 0.02 0.01
0.01 0.02 0.01
0.015 0.02 0.01
0.02 0.02 0.01
0.025 0.02 0.01
0.03 0.02 0.01
0.035 0.02 0.01
0.04 0.02 0.01
0.045 0.02 0.01
0.05 0.02 0.01
0.055 0.02 0.01
0.06 0.02 0.01
0.065 0.02 0.01
0.07 0.02 0.01
0.075 0.02 0.01
0.08 0.02 0.01
0.085 0.02 0.01
0.09 0.02 0.01
0.095 0.02 0.01
0.1 0.02 0.01
0 0.025 0.01
0.005 0.025 0.01
0.01 0.025 0.01
0.015 0.025 0.01
0.02 0.025 0.01
0.025 0.025 0.01
0.03 0.025 0.01
0.035 0.025 0.01
0.04 0.025 0.01
0.045 0.025 0.01
0.05 0.025 0.01
0.055 0.025 0.01
0.06 0.025 0.01
0.065 0.025 0.01
0.07 0.025 0.01
0.075 0.025 0.01
0.08 0.025 0.01
0.085 0.025 0.01
0.09 0.025 0.01
0.095 0.025 0.01
0.1 0.025 0.01
0 0.03 0.01
0.005 0.03 0.01
0.01 0.03 0.01
0.015 0.03 0.01
0.02 0.03 0.01
0.025 0.03 0.01
0.03 0.03 0.01
0.035 0.03 0.01
0.04 0.03 0.01
0.045 0.03 0.01
0.05 0.03 0.01
0.055 0.03 0.01
0.06 0.03 0.01
0.065 0.03 0.01
0.07 0.03 0.01
0.075 0.03 0.01
0.08 0.03 0.01
0.085 0.03 0.01
0.09 0.03 0.01
0.095 0.03 0.01
0.1 0.03 0.01
0 0 0.015
0.005 0 0.015
0.01 0 0.015
0.015 0 0.015
0.02 0 0.015
0.025 0 0.015
0.03 0 0.015
0.035 0 0.015
0.04 0 0.015
0.045 0 0.015
0.05 0 0.015
0.055 0 0.015
0.06 0 0.015
0.065 0 0.015
0.07 0 0.015
0.075 0 0.015
0.08 0 0.015
0.085 0 0.015
0.09 0 0.015
0.095 0 0.015
0.1 0 0.015
0 0.005 0.015
0.005 0.005 0.015
0.01 0.005 0.015
0.015 0.005 0.015
0.02 0.005 0.015
0.025 0.005 0.015
0.03 0.005 0.015
0.035 0.005 0.015
0.04 0.005 0.015
0.045 0.005 0.015
0.05 0.005 0.015
0.055 0.005 0.015
0.06 0.005 0.015
0.065 0.005 0.015
0.07 0.005 0.015
0.075 0.005 0.015
0.08 0.005 0.015
0.085 0.005 0.015
0.09 0.005 0.015
0.095 0.005 0.015
0.1 0.005 0.015
0 0.01 0.015
0.005 0.01 0.015
0.01 0.01 0.015
0.015 0.01 0.015
0.02 0.01 0.015
0.025 0.01 0.015
0.03 0.01 0.015
0.035 0.01 0.015
0.04 0.01 0.015
0.045 0.01 0.015
0.05 0.01 0.015
0.055 0.01 0.015
0.06 0.01 0.015
0.065 0.01 0.015
0.07 0.01 0.015
0.075 0.01 0.015
0.08 0.01 0.015
0.085 0.01 0.015
0.09 0.01 0.015
0.095 0.01 0.015
0.1 0.01 0.015
0 0.015 0.015
0.005 0.015 0.015
0.01 0.015 0.015
0.015 0.015 0.015
0.02 0.015 0.015
0.025 0.015 0.015
0.03 0.015 0.015
0.035 0.015 0.015
0.04 0.015 0.015
0.045 0.015 0.015
0.05 0.015 0.015
0.055 0.015 0.015
0.06 0.015 0.015
0.065 0.015 0.015
0.07 0.015 0.015
0.075 0.015 0.015
0.08 0.015 0.015
0.085 0.015 0.015
0.09 0.015 0.015
0.095 0.015 0.015
0.1 0.015 0.015
0 0.02 0.015
0.005 0.02 0.015
0.01 0.02 0.015
0.015 0.02 0.015
0.02 0.02 0.015
0.025 0.02 0.015
0.03 0.02 0.015
0.035 0.02 0.015
0.04 0.02 0.015
0.045 0.02 0.015
0.05 0.02 0.015
0.055 0.02 0.015
0.06 0.02 0.015
0.065 0.02 0.015
0.07 0.02 0.015
0.075 0.02 0.015
0.08 0.02 0.015
0.085 0.02 0.015
0.09 0.02 0.015
0.095 0.02 0.015
0.1 0.02 0.015
0 0.025 0.015
0.005 0.025 0.015
0.01 0.025 0.015
0.015 0.025 0.015
0.02 0.025 0.015
0.025 0.025 0.015
0.03 0.025 0.015
0.035 0.025 0.015
0.04 0.025 0.015
0.045 0.025 0.015
0.05 0.025 0.015
0.055 0.025 0.015
0.06 0.025 0.015
0.065 0.025 0.015
0.07 0.025 0.015
0.075 0.025 0.015
0.08 0.025 0.015
0.085 0.025 0.015
0.09 0.025 0.015
0.095 0.025 0.015
0.1 0.025 0.015
0 0.03 0.015
0.005 0.03 0.015
0.01 0.03 0.015
0.015 0.03 0.015
0.02 0.03 0.015
0.025 0.03 0.015
0.03 0.03 0.015
0.035 0.03 0.015
0.04 0.03 0.015
0.045 0.03 0.015
0.05 0.03 0.015
0.055 0.03 0.015
0.06 0.03 0.015
0.065 0.03 0.015
0.07 0.03 0.015
0.075 0.03 0.015
0.08 0.03 0.015
0.085 0.03 0.015
0.09 0.03 0.015
0.095 0.03 0.015
0.1 0.03 0.015
0 0 0.02
0.005 0 0.02
0.01 0 0.02
0.015 0 0.02
0.02 0 0.02
0.025 0 0.02
0.03 0 0.02
0.035 0 0.02
0.04 0 0.02
0.045 0 0.02
0.05 0 0.02
0.055 0 0.02
0.06 0 0.02
0.065 0 0.02
0.07 0 0.02
0.075 0 0.02
0.08 0 0.02
0.085 0 0.02
0.09 0 0.02
0.095 0 0.02
0.1 0 0.02
0 0.005 0.02
0.005 0.005 0.02
0.01 0.005 0.02
0.015 0.005 0.02
0.02 0.005 0.02
0.025 0.005 0.02
0.03 0.005 0.02
0.035 0.005 0.02
0.04 0.005 0.02
0.045 0.005 0.02
0.05 0.005 0.02
0.055 0.005 0.02
0.06 0.005 0.02
0.065 0.005 0.02
0.07 0.005 0.02
0.075 0.005 0.02
0.08 0.005 0.02
0.085 0.005 0.02
0.09 0.005 0.02
0.095 0.005 0.02
0.1 0.005 0.02
0 0.01 0.02
0.005 0.01 0.02
0.01 0.01 0.02
0.015 0.01 0.02
0.02 0.01 0.02
0.025 0.01 0.02
0.03 0.01 0.02
0.035 0.01 0.02
0.04 0.01 0.02
0.045 0.01 0.02
0.05 0.01 0.02
0.055 0.01 0.02
0.06 0.01 0.02
0.065 0.01 0.02
0.07 0.01 0.02
0.075 0.01 0.02
0.08 0.01 0.02
0.085 0.01 0.02
0.09 0.01 0.02
0.095 0.01 0.02
[...]
<PointData Vectors="Displacement">
<DataArray type="Float32" Name="Displacement" NumberOfComponents="3" format="ascii">
0 0 0
0.000841055 0.000232163 0.000232163
0.0015504 0.000291128 0.000291128
0.00226703 0.000317774 0.000317774
0.00300208 0.000325124 0.000325124
0.00375009 0.000326536 0.000326536
0.00450524 0.000326151 0.000326151
0.00526364 0.000325591 0.000325591
0.0060233 0.000325214 0.000325214
0.00678335 0.000325028 0.000325028
0.00754348 0.000324972 0.000324972
0.00830358 0.000325012 0.000325012
0.00906356 0.000325152 0.000325152
0.00982315 0.000325403 0.000325403
0.0105817 0.000325695 0.000325695
0.0113377 0.000325582 0.000325582
0.0120887 0.000323756 0.000323756
0.0128316 0.000316099 0.000316099
0.0135652 0.000296646 0.000296646
0.0143167 0.000222676 0.000222676
0.015 0.000167563 0.000167563
0 0 0
0.000774232 0.000122048 0.000233156
0.00151438 0.000191788 0.00029503
0.00225037 0.000212976 0.000319091
0.00299552 0.000218725 0.000325732
0.00374798 0.000218936 0.000326719
0.0045048 0.000218074 0.00032619
0.00526369 0.000217331 0.000325585
0.00602342 0.000216904 0.000325203
0.00678342 0.00021671 0.000325019
0.00754349 0.000216656 0.000324965
0.00830354 0.0002167 0.000325005
0.00906351 0.000216853 0.000325146
0.00982321 0.000217158 0.000325409
0.0105822 0.000217603 0.000325744
0.0113396 0.000217892 0.000325766
0.0120942 0.000216733 0.000324226
0.0128443 0.000210858 0.000317374
0.0135922 0.000189634 0.000298728
0.0143447 0.000146837 0.000220112
0.015 0.000119888 0.000159556
0 0 0
0.000764719 5.51556e-05 0.000238675
0.00149149 9.18532e-05 0.000299836
0.00223478 0.000106946 0.000322208
0.00298722 0.000110159 0.000327091
0.00374435 0.00011006 0.000327232
0.00450347 0.000109346 0.000326334
0.00526331 0.000108802 0.000325603
0.00602336 0.000108502 0.000325188
0.00678344 0.000108369 0.000325002
0.0075435 0.000108333 0.00032495
0.00830356 0.000108364 0.000324993
0.0090636 0.000108471 0.000325143
0.0098236 0.000108689 0.000325443
0.0105834 0.000109029 0.000325896
0.0113425 0.000109312 0.000326215
0.0121 0.000108752 0.000325327
0.012854 0.000104566 0.00031934
0.0136003 9.22373e-05 0.000300662
0.0143472 7.36272e-05 0.000216385
0.015 6.26605e-05 0.000149575
0 0 0
0.000762253 -5.11682e-19 0.000240268
0.00148613 -9.61302e-19 0.000302051
0.00222874 -2.86252e-19 0.000323524
0.00298372 1.18856e-18 0.000327779
0.00374267 2.76996e-18 0.000327496
0.0045028 4.47253e-18 0.000326418
0.0052631 4.99704e-18 0.000325619
0.00602331 5.38804e-18 0.000325184
0.00678344 4.23209e-18 0.000324995
0.00754351 3.02918e-18 0.000324944
0.00830357 1.37493e-18 0.000324988
0.00906367 -1.85083e-19 0.000325144
0.00982381 -9.20753e-19 0.000325464
0.0105839 -1.62612e-18 0.000325978
0.0113438 -1.67182e-18 0.000326447
0.0121024 -1.05042e-18 0.000325824
0.0128568 9.27461e-19 0.000320158
0.0136016 2.47333e-18 0.000301012
0.0143471 3.74982e-18 0.000214775
0.015 3.18121e-19 0.000146316
0 0 0
0.000764719 -5.51556e-05 0.000238675
0.00149149 -9.18532e-05 0.000299836
0.00223478 -0.000106946 0.000322208
0.00298722 -0.000110159 0.000327091
0.00374435 -0.00011006 0.000327232
0.00450347 -0.000109346 0.000326334
0.00526331 -0.000108802 0.000325603
0.00602336 -0.000108502 0.000325188
0.00678344 -0.000108369 0.000325002
0.0075435 -0.000108333 0.00032495
0.00830356 -0.000108364 0.000324993
0.0090636 -0.000108471 0.000325143
0.0098236 -0.000108689 0.000325443
0.0105834 -0.000109029 0.000325896
0.0113425 -0.000109312 0.000326215
0.0121 -0.000108752 0.000325327
0.012854 -0.000104566 0.00031934
0.0136003 -9.22373e-05 0.000300662
0.0143472 -7.36272e-05 0.000216385
0.015 -6.26605e-05 0.000149575
0 0 0
0.000774232 -0.000122048 0.000233156
0.00151438 -0.000191788 0.00029503
0.00225037 -0.000212976 0.000319091
0.00299552 -0.000218725 0.000325732
0.00374798 -0.000218936 0.000326719
0.0045048 -0.000218074 0.00032619
0.00526369 -0.000217331 0.000325585
0.00602342 -0.000216904 0.000325203
0.00678342 -0.00021671 0.000325019
0.00754349 -0.000216656 0.000324965
0.00830354 -0.0002167 0.000325005
0.00906351 -0.000216853 0.000325146
0.00982321 -0.000217158 0.000325409
0.0105822 -0.000217603 0.000325744
0.0113396 -0.000217892 0.000325766
0.0120942 -0.000216733 0.000324226
0.0128443 -0.000210858 0.000317374
0.0135922 -0.000189634 0.000298728
0.0143447 -0.000146837 0.000220112
0.015 -0.000119888 0.000159556
0 0 0
0.000841055 -0.000232163 0.000232163
0.0015504 -0.000291128 0.000291128
0.00226703 -0.000317774 0.000317774
0.00300208 -0.000325124 0.000325124
0.00375009 -0.000326536 0.000326536
0.00450524 -0.000326151 0.000326151
0.00526364 -0.000325591 0.000325591
0.0060233 -0.000325214 0.000325214
0.00678335 -0.000325028 0.000325028
0.00754348 -0.000324972 0.000324972
0.00830358 -0.000325012 0.000325012
0.00906356 -0.000325152 0.000325152
0.00982315 -0.000325403 0.000325403
0.0105817 -0.000325695 0.000325695
0.0113377 -0.000325582 0.000325582
0.0120887 -0.000323756 0.000323756
0.0128316 -0.000316099 0.000316099
0.0135652 -0.000296646 0.000296646
0.0143167 -0.000222676 0.000222676
0.015 -0.000167563 0.000167563
0 0 0
0.000774232 0.000233156 0.000122048
0.00151438 0.00029503 0.000191788
0.00225037 0.000319091 0.000212976
0.00299552 0.000325732 0.000218725
0.00374798 0.000326719 0.000218936
0.0045048 0.00032619 0.000218074
0.00526369 0.000325585 0.000217331
0.00602342 0.000325203 0.000216904
0.00678342 0.000325019 0.00021671
0.00754349 0.000324965 0.000216656
0.00830354 0.000325005 0.0002167
0.00906351 0.000325146 0.000216853
0.00982321 0.000325409 0.000217158
0.0105822 0.000325744 0.000217603
0.0113396 0.000325766 0.000217892
0.0120942 0.000324226 0.000216733
0.0128443 0.000317374 0.000210858
0.0135922 0.000298728 0.000189634
0.0143447 0.000220112 0.000146837
0.015 0.000159556 0.000119888
0 0 0
0.000705564 0.000121463 0.000121463
0.00147852 0.000191377 0.000191377
0.0022346 0.000212759 0.000212759
0.00298941 0.00021856 0.00021856
0.00374609 0.000218866 0.000218866
0.00450445 0.000218044 0.000218044
0.00526377 0.000217322 0.000217322
0.00602354 0.000216902 0.000216902
0.00678349 0.00021671 0.00021671
0.0075435 0.000216656 0.000216656
0.0083035 0.0002167 0.0002167
0.00906345 0.000216851 0.000216851
0.00982324 0.000217149 0.000217149
0.0105827 0.000217579 0.000217579
0.0113415 0.000217839 0.000217839
0.0120993 0.000216647 0.000216647
0.0128568 0.000210809 0.000210809
0.0136204 0.000189599 0.000189599
0.0143748 0.000146663 0.000146663
0.015 0.000119295 0.000119295
0 0 0
0.000695633 5.40041e-05 0.000123712
0.00145579 9.07003e-05 0.000194224
0.00221949 0.000106193 0.000214522
0.00298158 0.00010978 0.000219374
0.00374271 0.000109897 0.00021916
0.00450323 0.000109291 0.000218125
0.00526343 0.000108788 0.000217329
0.0060235 0.000108502 0.000216892
0.00678351 0.000108372 0.0002167
0.00754351 0.000108336 0.000216648
0.00830351 0.000108366 0.000216692
0.00906353 0.000108469 0.000216848
0.00982359 0.000108673 0.000217168
0.0105838 0.000108978 0.000217667
0.0113442 0.000109183 0.000218111
0.012105 0.000108491 0.0002173
0.0128666 0.000104168 0.000211965
0.0136295 9.20202e-05 0.000190281
0.0143784 7.41943e-05 0.000144226
0.015 6.37368e-05 0.000113937
0 0 0
0.000692849 -2.03844e-18 0.000124816
0.00145048 -3.01262e-18 0.000195527
0.00221369 -1.67391e-18 0.000215437
0.00297827 1.47039e-18 0.000219823
0.00374114 5.35738e-18 0.000219338
0.00450261 7.98896e-18 0.000218178
0.00526323 8.3807e-18 0.000217338
0.00602345 6.63402e-18 0.000216889
0.00678351 3.26145e-18 0.000216695
0.00754352 3.42698e-19 0.000216643
0.00830353 -2.47342e-18 0.000216689
0.00906359 -4.21674e-18 0.000216849
0.00982379 -5.51114e-18 0.000217181
0.0105843 -5.24102e-18 0.000217722
0.0113454 -3.83063e-18 0.000218266
0.0121073 7.15382e-20 0.000217644
0.0128694 6.37765e-18 0.000212473
0.0136313 1.22356e-17 0.000190418
0.0143787 1.63636e-17 0.000143114
0.015 6.05138e-18 0.000111818
0 0 0
0.000695633 -5.40041e-05 0.000123712
0.00145579 -9.07003e-05 0.000194224
0.00221949 -0.000106193 0.000214522
0.00298158 -0.00010978 0.000219374
0.00374271 -0.000109897 0.00021916
0.00450323 -0.000109291 0.000218125
0.00526343 -0.000108788 0.000217329
0.0060235 -0.000108502 0.000216892
0.00678351 -0.000108372 0.0002167
0.00754351 -0.000108336 0.000216648
0.00830351 -0.000108366 0.000216692
0.00906353 -0.000108469 0.000216848
0.00982359 -0.000108673 0.000217168
0.0105838 -0.000108978 0.000217667
0.0113442 -0.000109183 0.000218111
0.012105 -0.000108491 0.0002173
0.0128666 -0.000104168 0.000211965
0.0136295 -9.20202e-05 0.000190281
0.0143784 -7.41943e-05 0.000144226
0.015 -6.37368e-05 0.000113937
0 0 0
0.000705564 -0.000121463 0.000121463
0.00147852 -0.000191377 0.000191377
0.0022346 -0.000212759 0.000212759
0.00298941 -0.00021856 0.00021856
0.00374609 -0.000218866 0.000218866
0.00450445 -0.000218044 0.000218044
0.00526377 -0.000217322 0.000217322
0.00602354 -0.000216902 0.000216902
0.00678349 -0.00021671 0.00021671
0.0075435 -0.000216656 0.000216656
0.0083035 -0.0002167 0.0002167
0.00906345 -0.000216851 0.000216851
0.00982324 -0.000217149 0.000217149
0.0105827 -0.000217579 0.000217579
0.0113415 -0.000217839 0.000217839
0.0120993 -0.000216647 0.000216647
0.0128568 -0.000210809 0.000210809
0.0136204 -0.000189599 0.000189599
0.0143748 -0.000146663 0.000146663
0.015 -0.000119295 0.000119295
0 0 0
0.000774232 -0.000233156 0.000122048
0.00151438 -0.00029503 0.000191788
0.00225037 -0.000319091 0.000212976
0.00299552 -0.000325732 0.000218725
0.00374798 -0.000326719 0.000218936
0.0045048 -0.00032619 0.000218074
0.00526369 -0.000325585 0.000217331
0.00602342 -0.000325203 0.000216904
0.00678342 -0.000325019 0.00021671
0.00754349 -0.000324965 0.000216656
0.00830354 -0.000325005 0.0002167
0.00906351 -0.000325146 0.000216853
0.00982321 -0.000325409 0.000217158
0.0105822 -0.000325744 0.000217603
0.0113396 -0.000325766 0.000217892
0.0120942 -0.000324226 0.000216733
0.0128443 -0.000317374 0.000210858
0.0135922 -0.000298728 0.000189634
0.0143447 -0.000220112 0.000146837
0.015 -0.000159556 0.000119888
0 0 0
0.000764719 0.000238675 5.51556e-05
0.00149149 0.000299836 9.18532e-05
0.00223478 0.000322208 0.000106946
0.00298722 0.000327091 0.000110159
0.00374435 0.000327232 0.00011006
0.00450347 0.000326334 0.000109346
0.00526331 0.000325603 0.000108802
0.00602336 0.000325188 0.000108502
0.00678344 0.000325002 0.000108369
0.0075435 0.00032495 0.000108333
0.00830356 0.000324993 0.000108364
0.0090636 0.000325143 0.000108471
0.0098236 0.000325443 0.000108689
0.0105834 0.000325896 0.000109029
0.0113425 0.000326215 0.000109312
0.0121 0.000325327 0.000108752
0.012854 0.00031934 0.000104566
0.0136003 0.000300662 9.22373e-05
0.0143472 0.000216385 7.36272e-05
0.015 0.000149575 6.26605e-05
0 0 0
0.000695633 0.000123712 5.40041e-05
0.00145579 0.000194224 9.07003e-05
0.00221949 0.000214522 0.000106193
0.00298158 0.000219374 0.00010978
0.00374271 0.00021916 0.000109897
0.00450323 0.000218125 0.000109291
0.00526343 0.000217329 0.000108788
0.0060235 0.000216892 0.000108502
0.00678351 0.0002167 0.000108372
0.00754351 0.000216648 0.000108336
0.00830351 0.000216692 0.000108366
0.00906353 0.000216848 0.000108469
0.00982359 0.000217168 0.000108673
0.0105838 0.000217667 0.000108978
0.0113442 0.000218111 0.000109183
0.012105 0.0002173 0.000108491
0.0128666 0.000211965 0.000104168
0.0136295 0.000190281 9.20202e-05
0.0143784 0.000144226 7.41943e-05
0.015 0.000113937 6.37368e-05
0 0 0
0.000686146 5.4886e-05 5.4886e-05
0.00143277 9.1718e-05 9.1718e-05
0.0022042 0.00010692 0.00010692
0.00297372 0.000110128 0.000110128
0.00373937 0.000110026 0.000110026
0.00450205 0.000109325 0.000109325
0.00526312 0.000108791 0.000108791
0.00602347 0.000108497 0.000108497
0.00678354 0.000108368 0.000108368
0.00754353 0.000108332 0.000108332
0.00830352 0.000108362 0.000108362
0.00906361 0.000108467 0.000108467
0.00982393 0.000108681 0.000108681
0.0105848 0.000109018 0.000109018
0.0113469 0.000109305 0.000109305
0.0121107 0.000108776 0.000108776
0.0128767 0.000104583 0.000104583
0.0136384 9.21238e-05 9.21238e-05
0.0143811 7.32195e-05 7.32195e-05
0.015 6.17367e-05 6.17367e-05
0 0 0
0.000683493 -2.86202e-18 5.53308e-05
0.00142745 -3.87367e-18 9.22934e-05
0.00219829 -1.96557e-18 0.000107332
0.00297038 2.93067e-18 0.000110341
0.00373781 8.56673e-18 0.000110109
0.00450144 1.26847e-17 0.000109351
0.00526293 1.37869e-17 0.000108795
0.00602343 1.19977e-17 0.000108496
0.00678354 8.41243e-18 0.000108365
0.00754353 5.10252e-18 0.00010833
0.00830354 2.45129e-18 0.000108361
0.00906366 3.46987e-19 0.000108467
0.00982412 -2.19882e-18 0.000108688
0.0105854 -4.14772e-18 0.000109044
0.0113481 -4.89311e-18 0.00010938
0.0121131 -2.25246e-18 0.000108935
0.0128796 4.29582e-18 0.000104794
0.0136401 1.13596e-17 9.21405e-05
0.0143812 1.69889e-17 7.27068e-05
0.015 5.55178e-18 6.07818e-05
0 0 0
0.000686146 -5.4886e-05 5.4886e-05
0.00143277 -9.1718e-05 9.1718e-05
0.0022042 -0.00010692 0.00010692
0.00297372 -0.000110128 0.000110128
0.00373937 -0.000110026 0.000110026
0.00450205 -0.000109325 0.000109325
0.00526312 -0.000108791 0.000108791
0.00602347 -0.000108497 0.000108497
0.00678354 -0.000108368 0.000108368
0.00754353 -0.000108332 0.000108332
0.00830352 -0.000108362 0.000108362
0.00906361 -0.000108467 0.000108467
0.00982393 -0.000108681 0.000108681
0.0105848 -0.000109018 0.000109018
0.0113469 -0.000109305 0.000109305
0.0121107 -0.000108776 0.000108776
0.0128767 -0.000104583 0.000104583
0.0136384 -9.21238e-05 9.21238e-05
0.0143811 -7.32195e-05 7.32195e-05
0.015 -6.17367e-05 6.17367e-05
0 0 0
0.000695633 -0.000123712 5.40041e-05
0.00145579 -0.000194224 9.07003e-05
0.00221949 -0.000214522 0.000106193
0.00298158 -0.000219374 0.00010978
0.00374271 -0.00021916 0.000109897
0.00450323 -0.000218125 0.000109291
0.00526343 -0.000217329 0.000108788
0.0060235 -0.000216892 0.000108502
0.00678351 -0.0002167 0.000108372
0.00754351 -0.000216648 0.000108336
0.00830351 -0.000216692 0.000108366
0.00906353 -0.000216848 0.000108469
0.00982359 -0.000217168 0.000108673
0.0105838 -0.000217667 0.000108978
0.0113442 -0.000218111 0.000109183
0.012105 -0.0002173 0.000108491
0.0128666 -0.000211965 0.000104168
0.0136295 -0.000190281 9.20202e-05
0.0143784 -0.000144226 7.41943e-05
0.015 -0.000113937 6.37368e-05
0 0 0
0.000764719 -0.000238675 5.51556e-05
0.00149149 -0.000299836 9.18532e-05
0.00223478 -0.000322208 0.000106946
0.00298722 -0.000327091 0.000110159
0.00374435 -0.000327232 0.00011006
0.00450347 -0.000326334 0.000109346
0.00526331 -0.000325603 0.000108802
0.00602336 -0.000325188 0.000108502
0.00678344 -0.000325002 0.000108369
0.0075435 -0.00032495 0.000108333
0.00830356 -0.000324993 0.000108364
0.0090636 -0.000325143 0.000108471
0.0098236 -0.000325443 0.000108689
0.0105834 -0.000325896 0.000109029
0.0113425 -0.000326215 0.000109312
0.0121 -0.000325327 0.000108752
0.012854 -0.00031934 0.000104566
0.0136003 -0.000300662 9.22373e-05
0.0143472 -0.000216385 7.36272e-05
0.015 -0.000149575 6.26605e-05
0 0 0
0.000762253 0.000240268 -5.52641e-19
0.00148613 0.000302051 -4.26329e-19
0.00222874 0.000323524 2.29809e-19
0.00298372 0.000327779 2.12146e-18
0.00374267 0.000327496 4.94237e-18
0.0045028 0.000326418 7.79436e-18
0.0052631 0.000325619 1.10442e-17
0.00602331 0.000325184 1.21813e-17
0.00678344 0.000324995 1.20558e-17
0.00754351 0.000324944 1.04956e-17
0.00830357 0.000324988 7.56468e-18
0.00906367 0.000325144 4.42902e-18
0.00982381 0.000325464 2.31335e-18
0.0105839 0.000325978 -2.76348e-19
0.0113438 0.000326447 -4.96998e-19
0.0121024 0.000325824 7.10827e-19
0.0128568 0.000320158 1.21554e-18
0.0136016 0.000301012 1.64739e-18
0.0143471 0.000214775 1.54742e-18
0.015 0.000146316 1.9274e-18
0 0 0
0.000692849 0.000124816 -1.30005e-18
0.00145048 0.000195527 -1.28361e-18
0.00221369 0.000215437 1.20996e-18
0.00297827 0.000219823 7.11339e-18
0.00374114 0.000219338 1.65222e-17
0.00450261 0.000218178 2.73597e-17
0.00526323 0.000217338 3.74633e-17
0.00602345 0.000216889 4.40425e-17
0.00678351 0.000216695 4.49631e-17
0.00754352 0.000216643 3.94461e-17
0.00830353 0.000216689 2.89096e-17
0.00906359 0.000216849 1.66833e-17
0.00982379 0.000217181 7.10279e-18
0.0105843 0.000217722 -1.71465e-20
0.0113454 0.000218266 -2.08515e-18
0.0121073 0.000217644 -1.18227e-18
0.0128694 0.000212473 -9.34331e-20
0.0136313 0.000190418 7.18218e-19
0.0143787 0.000143114 3.07478e-19
0.015 0.000111818 -3.49378e-19
0 0 0
0.000683493 5.53308e-05 -8.02064e-19
0.00142745 9.22934e-05 -6.26578e-19
0.00219829 0.000107332 1.36113e-18
0.00297038 0.000110341 6.35567e-18
0.00373781 0.000110109 1.47395e-17
0.00450144 0.000109351 2.48631e-17
0.00526293 0.000108795 3.5174e-17
0.00602343 0.000108496 4.20828e-17
0.00678354 0.000108365 4.29698e-17
0.00754353 0.00010833 3.67862e-17
0.00830354 0.000108361 2.58494e-17
0.00906366 0.000108467 1.32629e-17
0.00982412 0.000108688 4.14916e-18
0.0105854 0.000109044 -1.36224e-18
0.0113481 0.00010938 -1.84115e-18
0.0121131 0.000108935 4.56592e-19
0.0128796 0.000104794 2.01062e-18
0.0136401 9.21405e-05 2.46197e-18
0.0143812 7.27068e-05 1.27128e-18
0.015 6.07818e-05 -1.48997e-19
0 0 0
0.000680868 -1.71381e-18 1.66733e-18
0.00142212 -2.47125e-18 2.1453e-18
0.00219235 -1.61745e-18 1.44195e-18
0.00296701 8.0161e-19 -8.24065e-19
0.00373624 2.44041e-18 -2.22384e-18
0.00450083 2.47256e-18 -2.04744e-18
0.00526274 5.15391e-19 -3.04858e-19
0.00602339 -2.18308e-18 2.13637e-18
0.00678354 -3.98602e-18 3.11557e-18
0.00754354 -2.74381e-18 2.25707e-18
0.00830355 2.22807e-19 -4.64448e-19
0.00906372 3.22009e-18 -2.88264e-18
0.00982431 3.82304e-18 -2.48315e-18
0.0105859 1.15998e-18 -1.15718e-18
0.0113493 -2.20952e-18 1.55928e-18
0.0121155 -4.54283e-18 3.77011e-18
0.0128825 -3.23714e-18 2.45787e-18
0.0136417 -1.91149e-19 -1.66632e-19
0.0143811 2.98505e-18 -3.30758e-18
0.015 1.38347e-18 -2.25011e-18
0 0 0
0.000683493 -5.53308e-05 3.45108e-18
0.00142745 -9.22934e-05 4.46513e-18
0.00219829 -0.000107332 6.62262e-19
0.00297038 -0.000110341 -7.5525e-18
0.00373781 -0.000110109 -1.82867e-17
0.00450144 -0.000109351 -2.86752e-17
0.00526293 -0.000108795 -3.56745e-17
0.00602343 -0.000108496 -3.83232e-17
0.00678354 -0.000108365 -3.71459e-17
0.00754353 -0.00010833 -3.2794e-17
0.00830354 -0.000108361 -2.63857e-17
0.00906366 -0.000108467 -1.80774e-17
0.00982412 -0.000108688 -8.50341e-18
0.0105854 -0.000109044 -9.57352e-19
0.0113481 -0.00010938 4.78303e-18
0.0121131 -0.000108935 6.1159e-18
0.0128796 -0.000104794 2.54472e-18
0.0136401 -9.21405e-05 -3.04937e-18
0.0143812 -7.27068e-05 -7.58154e-18
0.015 -6.07818e-05 -3.0357e-18
0 0 0
0.000692849 -0.000124816 3.01017e-18
0.00145048 -0.000195527 3.64675e-18
0.00221369 -0.000215437 1.71617e-19
0.00297827 -0.000219823 -8.0706e-18
0.00374114 -0.000219338 -1.8812e-17
0.00450261 -0.000218178 -2.94419e-17
0.00526323 -0.000217338 -3.78672e-17
0.00602345 -0.000216889 -4.16359e-17
0.00678351 -0.000216695 -4.10501e-17
0.00754352 -0.000216643 -3.66386e-17
0.00830353 -0.000216689 -2.9172e-17
0.00906359 -0.000216849 -2.0044e-17
0.00982379 -0.000217181 -9.48528e-18
0.0105843 -0.000217722 -1.72813e-18
0.0113454 -0.000218266 3.87975e-18
0.0121073 -0.000217644 5.82821e-18
0.0128694 -0.000212473 3.19424e-18
0.0136313 -0.000190418 -1.04114e-18
0.0143787 -0.000143114 -4.4635e-18
0.015 -0.000111818 -2.2341e-18
0 0 0
0.000762253 -0.000240268 7.73006e-19
0.00148613 -0.000302051 9.89444e-19
0.00222874 -0.000323524 -3.91296e-20
0.00298372 -0.000327779 -2.18695e-18
0.00374267 -0.000327496 -5.11327e-18
0.0045028 -0.000326418 -8.38483e-18
0.0052631 -0.000325619 -1.03599e-17
0.00602331 -0.000325184 -1.12861e-17
0.00678344 -0.000324995 -1.10141e-17
0.00754351 -0.000324944 -9.93057e-18
0.00830357 -0.000324988 -7.65147e-18
0.00906367 -0.000325144 -5.19707e-18
0.00982381 -0.000325464 -1.83568e-18
0.0105839 -0.000325978 -4.00855e-19
0.0113438 -0.000326447 9.11094e-19
0.0121024 -0.000325824 1.41292e-18
0.0128568 -0.000320158 -3.47372e-19
0.0136016 -0.000301012 -1.68015e-18
0.0143471 -0.000214775 -2.81625e-18
0.015 -0.000146316 -2.79698e-18
0 0 0
0.000764719 0.000238675 -5.51556e-05
0.00149149 0.000299836 -9.18532e-05
0.00223478 0.000322208 -0.000106946
0.00298722 0.000327091 -0.000110159
0.00374435 0.000327232 -0.00011006