<?xml version="1.0"?>
<VTKFile type="UnstructuredGrid" version="0.1" byte_order="LittleEndian">
<UnstructuredGrid>
<Piece NumberOfPoints="1029" NumberOfCells="720">
<Points>
<DataArray type="Float32" NumberOfComponents="3" format="ascii">
0 0 0
0.005 0 0
0.01 0 0
0.015 0 0
0.02 0 0
0.025 0 0
0.03 0 0
0.035 0 0
0.04 0 0
0.045 0 0
0.05 0 0
0.055 0 0
0.06 0 0
0.065 0 0
0.07 0 0
0.075 0 0
0.08 0 0
0.085 0 0
0.09 0 0
0.095 0 0
0.1 0 0
0 0.005 0
0.005 0.005 0
0.01 0.005 0
0.015 0.005 0
0.02 0.005 0
0.025 0.005 0
0.03 0.005 0
0.035 0.005 0
0.04 0.005 0
0.045 0.005 0
0.05 0.005 0
0.055 0.005 0
0.06 0.005 0
0.065 0.005 0
0.07 0.005 0
0.075 0.005 0
0.08 0.005 0
0.085 0.005 0
0.09 0.005 0
0.095 0.005 0
0.1 0.005 0
0 0.01 0
0.005 0.01 0
0.01 0.01 0
0.015 0.01 0
0.02 0.01 0
0.025 0.01 0
0.03 0.01 0
0.035 0.01 0
0.04 0.01 0
0.045 0.01 0
0.05 0.01 0
0.055 0.01 0
0.06 0.01 0
0.065 0.01 0
0.07 0.01 0
0.075 0.01 0
0.08 0.01 0
0.085 0.01 0
0.09 0.01 0
0.095 0.01 0
0.1 0.01 0
0 0.015 0
0.005 0.015 0
0.01 0.015 0
0.015 0.015 0
0.02 0.015 0
0.025 0.015 0
0.03 0.015 0
0.035 0.015 0
0.04 0.015 0
0.045 0.015 0
0.05 0.015 0
0.055 0.015 0
0.06 0.015 0
0.065 0.015 0
0.07 0.015 0
0.075 0.015 0
0.08 0.015 0
0.085 0.015 0
0.09 0.015 0
0.095 0.015 0
0.1 0.015 0
0 0.02 0
0.005 0.02 0
0.01 0.02 0
0.015 0.02 0
0.02 0.02 0
0.025 0.02 0
0.03 0.02 0
0.035 0.02 0
0.04 0.02 0
0.045 0.02 0
0.05 0.02 0
0.055 0.02 0
0.06 0.02 0
0.065 0.02 0
0.07 0.02 0
0.075 0.02 0
0.08 0.02 0
0.085 0.02 0
0.09 0.02 0
0.095 0.02 0
0.1 0.02 0
0 0.025 0
0.005 0.025 0
0.01 0.025 0
0.015 0.025 0
0.02 0.025 0
0.025 0.025 0
0.03 0.025 0
0.035 0.025 0
0.04 0.025 0
0.045 0.025 0
0.05 0.025 0
0.055 0.025 0
0.06 0.025 0
0.065 0.025 0
0.07 0.025 0
0.075 0.025 0
0.08 0.025 0
0.085 0.025 0
0.09 0.025 0
0.095 0.025 0
0.1 0.025 0
0 0.03 0
0.005 0.03 0
0.01 0.03 0
0.015 0.03 0
0.02 0.03 0
0.025 0.03 0
0.03 0.03 0
0.035 0.03 0
0.04 0.03 0
0.045 0.03 0
0.05 0.03 0
0.055 0.03 0
0.06 0.03 0
0.065 0.03 0
0.07 0.03 0
0.075 0.03 0
0.08 0.03 0
0.085 0.03 0
0.09 0.03 0
0.095 0.03 0
0.1 0.03 0
0 0 0.005
0.005 0 0.005
0.01 0 0.005
0.015 0 0.005
0.02 0 0.005
0.025 0 0.005
0.03 0 0.005
0.035 0 0.005
0.04 0 0.005
0.045 0 0.005
0.05 0 0.005
0.055 0 0.005
0.06 0 0.005
0.065 0 0.005
0.07 0 0.005
0.075 0 0.005
0.08 0 0.005
0.085 0 0.005
0.09 0 0.005
0.095 0 0.005
0.1 0 0.005
0 0.005 0.005
0.005 0.005 0.005
0.01 0.005 0.005
0.015 0.005 0.005
0.02 0.005 0.005
0.025 0.005 0.005
0.03 0.005 0.005
0.035 0.005 0.005
0.04 0.005 0.005
0.045 0.005 0.005
0.05 0.005 0.005
0.055 0.005 0.005
0.06 0.005 0.005
0.065 0.005 0.005
0.07 0.005 0.005
0.075 0.005 0.005
0.08 0.005 0.005
0.085 0.005 0.005
0.09 0.005 0.005
0.095 0.005 0.005
0.1 0.005 0.005
0 0.01 0.005
0.005 0.01 0.005
0.01 0.01 0.005
0.015 0.01 0.005
0.02 0.01 0.005
0.025 0.01 0.005
0.03 0.01 0.005
0.035 0.01 0.005
0.04 0.01 0.005
0.045 0.01 0.005
0.05 0.01 0.005
0.055 0.01 0.005
0.06 0.01 0.005
0.065 0.01 0.005
0.07 0.01 0.005
0.075 0.01 0.005
0.08 0.01 0.005
0.085 0.01 0.005
0.09 0.01 0.005
0.095 0.01 0.005
0.1 0.01 0.005
0 0.015 0.005
0.005 0.015 0.005
0.01 0.015 0.005
0.015 0.015 0.005
0.02 0.015 0.005
0.025 0.015 0.005
0.03 0.015 0.005
0.035 0.015 0.005
0.04 0.015 0.005
0.045 0.015 0.005
0.05 0.015 0.005
0.055 0.015 0.005
0.06 0.015 0.005
0.065 0.015 0.005
0.07 0.015 0.005
0.075 0.015 0.005
0.08 0.015 0.005
0.085 0.015 0.005
0.09 0.015 0.005
0.095 0.015 0.005
0.1 0.015 0.005
0 0.02 0.005
0.005 0.02 0.005
0.01 0.02 0.005
0.015 0.02 0.005
0.02 0.02 0.005
0.025 0.02 0.005
0.03 0.02 0.005
0.035 0.02 0.005
0.04 0.02 0.005
0.045 0.02 0.005
0.05 0.02 0.005
0.055 0.02 0.005
0.06 0.02 0.005
0.065 0.02 0.005
0.07 0.02 0.005
0.075 0.02 0.005
0.08 0.02 0.005
0.085 0.02 0.005
0.09 0.02 0.005
0.095 0.02 0.005
0.1 0.02 0.005
0 0.025 0.005
0.005 0.025 0.005
0.01 0.025 0.005
0.015 0.025 0.005
0.02 0.025 0.005
0.025 0.025 0.005
0.03 0.025 0.005
0.035 0.025 0.005
0.04 0.025 0.005
0.045 0.025 0.005
0.05 0.025 0.005
0.055 0.025 0.005
0.06 0.025 0.005
0.065 0.025 0.005
0.07 0.025 0.005
0.075 0.025 0.005
0.08 0.025 0.005
0.085 0.025 0.005
0.09 0.025 0.005
0.095 0.025 0.005
0.1 0.025 0.005
0 0.03 0.005
0.005 0.03 0.005
0.01 0.03 0.005
0.015 0.03 0.005
0.02 0.03 0.005
0.025 0.03 0.005
0.03 0.03 0.005
0.035 0.03 0.005
0.04 0.03 0.005
0.045 0.03 0.005
0.05 0.03 0.005
0.055 0.03 0.005
0.06 0.03 0.005
0.065 0.03 0.005
0.07 0.03 0.005
0.075 0.03 0.005
0.08 0.03 0.005
0.085 0.03 0.005
0.09 0.03 0.005
0.095 0.03 0.005
0.1 0.03 0.005
0 0 0.01
0.005 0 0.01
0.01 0 0.01
0.015 0 0.01
0.02 0 0.01
0.025 0 0.01
0.03 0 0.01
0.035 0 0.01
0.04 0 0.01
0.045 0 0.01
0.05 0 0.01
0.055 0 0.01
0.06 0 0.01
0.065 0 0.01
0.07 0 0.01
0.075 0 0.01
0.08 0 0.01
0.085 0 0.01
0.09 0 0.01
0.095 0 0.01
0.1 0 0.01
0 0.005 0.01
0.005 0.005 0.01
0.01 0.005 0.01
0.015 0.005 0.01
0.02 0.005 0.01
0.025 0.005 0.01
0.03 0.005 0.01
0.035 0.005 0.01
0.04 0.005 0.01
0.045 0.005 0.01
0.05 0.005 0.01
0.055 0.005 0.01
0.06 0.005 0.01
0.065 0.005 0.01
0.07 0.005 0.01
0.075 0.005 0.01
0.08 0.005 0.01
0.085 0.005 0.01
0.09 0.005 0.01
0.095 0.005 0.01
0.1 0.005 0.01
0 0.01 0.01
0.005 0.01 0.01
0.01 0.01 0.01
0.015 0.01 0.01
0.02 0.01 0.01
0.025 0.01 0.01
0.03 0.01 0.01
0.035 0.01 0.01
0.04 0.01 0.01
0.045 0.01 0.01
0.05 0.01 0.01
0.055 0.01 0.01
0.06 0.01 0.01
0.065 0.01 0.01
0.07 0.01 0.01
0.075 0.01 0.01
0.08 0.01 0.01
0.085 0.01 0.01
0.09 0.01 0.01
0.095 0.01 0.01
0.1 0.01 0.01
0 0.015 0.01
0.005 0.015 0.01
0.01 0.015 0.01
0.015 0.015 0.01
0.02 0.015 0.01
0.025 0.015 0.01
0.03 0.015 0.01
0.035 0.015 0.01
0.04 0.015 0.01
0.045 0.015 0.01
0.05 0.015 0.01
0.055 0.015 0.01
0.06 0.015 0.01
0.065 0.015 0.01
0.07 0.015 0.01
0.075 0.015 0.01
0.08 0.015 0.01
0.085 0.015 0.01
0.09 0.015 0.01
0.095 0.015 0.01
0.1 0.015 0.01
0 0.02 0.01
0.005 0.02 0.01
0.01 0.02 0.01
0.015 0.02 0.01
0.02 0.02 0.01
0.025 0.02 0.01
0.03 0.02 0.01
0.035 0.02 0.01
0.04 0.02 0.01
0.045 0.02 0.01
0.05 0.02 0.01
0.055 0.02 0.01
0.06 0.02 0.01
0.065 0.02 0.01
0.07 0.02 0.01
0.075 0.02 0.01
0.08 0.02 0.01
0.085 0.02 0.01
0.09 0.02 0.01
0.095 0.02 0.01
0.1 0.02 0.01
0 0.025 0.01
0.005 0.025 0.01
0.01 0.025 0.01
0.015 0.025 0.01
0.02 0.025 0.01
0.025 0.025 0.01
0.03 0.025 0.01
0.035 0.025 0.01
0.04 0.025 0.01
0.045 0.025 0.01
0.05 0.025 0.01
0.055 0.025 0.01
0.06 0.025 0.01
0.065 0.025 0.01
0.07 0.025 0.01
0.075 0.025 0.01
0.08 0.025 0.01
0.085 0.025 0.01
0.09 0.025 0.01
0.095 0.025 0.01
0.1 0.025 0.01
0 0.03 0.01
0.005 0.03 0.01
0.01 0.03 0.01
0.015 0.03 0.01
0.02 0.03 0.01
0.025 0.03 0.01
0.03 0.03 0.01
0.035 0.03 0.01
0.04 0.03 0.01
0.045 0.03 0.01
0.05 0.03 0.01
0.055 0.03 0.01
0.06 0.03 0.01
0.065 0.03 0.01
0.07 0.03 0.01
0.075 0.03 0.01
0.08 0.03 0.01
0.085 0.03 0.01
0.09 0.03 0.01
0.095 0.03 0.01
0.1 0.03 0.01
0 0 0.015
0.005 0 0.015
0.01 0 0.015
0.015 0 0.015
0.02 0 0.015
0.025 0 0.015
0.03 0 0.015
0.035 0 0.015
0.04 0 0.015
0.045 0 0.015
0.05 0 0.015
0.055 0 0.015
0.06 0 0.015
0.065 0 0.015
0.07 0 0.015
0.075 0 0.015
0.08 0 0.015
0.085 0 0.015
0.09 0 0.015
0.095 0 0.015
0.1 0 0.015
0 0.005 0.015
0.005 0.005 0.015
0.01 0.005 0.015
0.015 0.005 0.015
0.02 0.005 0.015
0.025 0.005 0.015
0.03 0.005 0.015
0.035 0.005 0.015
0.04 0.005 0.015
0.045 0.005 0.015
0.05 0.005 0.015
0.055 0.005 0.015
0.06 0.005 0.015
0.065 0.005 0.015
0.07 0.005 0.015
0.075 0.005 0.015
0.08 0.005 0.015
0.085 0.005 0.015
0.09 0.005 0.015
0.095 0.005 0.015
0.1 0.005 0.015
0 0.01 0.015
0.005 0.01 0.015
0.01 0.01 0.015
0.015 0.01 0.015
0.02 0.01 0.015
0.025 0.01 0.015
0.03 0.01 0.015
0.035 0.01 0.015
0.04 0.01 0.015
0.045 0.01 0.015
0.05 0.01 0.015
0.055 0.01 0.015
0.06 0.01 0.015
0.065 0.01 0.015
0.07 0.01 0.015
0.075 0.01 0.015
0.08 0.01 0.015
0.085 0.01 0.015
0.09 0.01 0.015
0.095 0.01 0.015
0.1 0.01 0.015
0 0.015 0.015
0.005 0.015 0.015
0.01 0.015 0.015
0.015 0.015 0.015
0.02 0.015 0.015
0.025 0.015 0.015
0.03 0.015 0.015
0.035 0.015 0.015
0.04 0.015 0.015
0.045 0.015 0.015
0.05 0.015 0.015
0.055 0.015 0.015
0.06 0.015 0.015
0.065 0.015 0.015
0.07 0.015 0.015
0.075 0.015 0.015
0.08 0.015 0.015
0.085 0.015 0.015
0.09 0.015 0.015
0.095 0.015 0.015
0.1 0.015 0.015
0 0.02 0.015
0.005 0.02 0.015
0.01 0.02 0.015
0.015 0.02 0.015
0.02 0.02 0.015
0.025 0.02 0.015
0.03 0.02 0.015
0.035 0.02 0.015
0.04 0.02 0.015
0.045 0.02 0.015
0.05 0.02 0.015
0.055 0.02 0.015
0.06 0.02 0.015
0.065 0.02 0.015
0.07 0.02 0.015
0.075 0.02 0.015
0.08 0.02 0.015
0.085 0.02 0.015
0.09 0.02 0.015
0.095 0.02 0.015
0.1 0.02 0.015
0 0.025 0.015
0.005 0.025 0.015
0.01 0.025 0.015
0.015 0.025 0.015
0.02 0.025 0.015
0.025 0.025 0.015
0.03 0.025 0.015
0.035 0.025 0.015
0.04 0.025 0.015
0.045 0.025 0.015
0.05 0.025 0.015
0.055 0.025 0.015
0.06 0.025 0.015
0.065 0.025 0.015
0.07 0.025 0.015
0.075 0.025 0.015
0.08 0.025 0.015
0.085 0.025 0.015
0.09 0.025 0.015
0.095 0.025 0.015
0.1 0.025 0.015
0 0.03 0.015
0.005 0.03 0.015
0.01 0.03 0.015
0.015 0.03 0.015
0.02 0.03 0.015
0.025 0.03 0.015
0.03 0.03 0.015
0.035 0.03 0.015
0.04 0.03 0.015
0.045 0.03 0.015
0.05 0.03 0.015
0.055 0.03 0.015
0.06 0.03 0.015
0.065 0.03 0.015
0.07 0.03 0.015
0.075 0.03 0.015
0.08 0.03 0.015
0.085 0.03 0.015
0.09 0.03 0.015
0.095 0.03 0.015
0.1 0.03 0.015
0 0 0.02
0.005 0 0.02
0.01 0 0.02
0.015 0 0.02
0.02 0 0.02
0.025 0 0.02
0.03 0 0.02
0.035 0 0.02
0.04 0 0.02
0.045 0 0.02
0.05 0 0.02
0.055 0 0.02
0.06 0 0.02
0.065 0 0.02
0.07 0 0.02
0.075 0 0.02
0.08 0 0.02
0.085 0 0.02
0.09 0 0.02
0.095 0 0.02
0.1 0 0.02
0 0.005 0.02
0.005 0.005 0.02
0.01 0.005 0.02
0.015 0.005 0.02
0.02 0.005 0.02
0.025 0.005 0.02
0.03 0.005 0.02
0.035 0.005 0.02
0.04 0.005 0.02
0.045 0.005 0.02
0.05 0.005 0.02
0.055 0.005 0.02
0.06 0.005 0.02
0.065 0.005 0.02
0.07 0.005 0.02
0.075 0.005 0.02
0.08 0.005 0.02
0.085 0.005 0.02
0.09 0.005 0.02
0.095 0.005 0.02
0.1 0.005 0.02
0 0.01 0.02
0.005 0.01 0.02
0.01 0.01 0.02
0.015 0.01 0.02
0.02 0.01 0.02
0.025 0.01 0.02
0.03 0.01 0.02
0.035 0.01 0.02
0.04 0.01 0.02
0.045 0.01 0.02
0.05 0.01 0.02
0.055 0.01 0.02
0.06 0.01 0.02
0.065 0.01 0.02
0.07 0.01 0.02
0.075 0.01 0.02
0.08 0.01 0.02
0.085 0.01 0.02
0.09 0.01 0.02
0.095 0.01 0.02
[...]
<PointData Vectors="Displacement">
<DataArray type="Float32" Name="Displacement" NumberOfComponents="3" format="ascii">
0 0 0
0.00232051 0.000784043 0.000784043
0.00442294 0.000929502 0.000929502
0.00657341 0.000992654 0.000992654
0.0087907 0.00100567 0.00100567
0.0110412 0.00100794 0.00100794
0.0133064 0.00100741 0.00100741
0.0155767 0.00100685 0.00100685
0.0178484 0.00100655 0.00100655
0.0201205 0.00100642 0.00100642
0.0223926 0.00100638 0.00100638
0.0246647 0.00100637 0.00100637
0.0269367 0.00100639 0.00100639
0.0292087 0.00100644 0.00100644
0.0314803 0.0010065 0.0010065
0.033751 0.00100644 0.00100644
0.0360193 0.00100576 0.00100576
0.0382827 0.00100214 0.00100214
0.0405391 0.000992651 0.000992651
0.0427983 0.000945464 0.000945464
0.045 0.000907785 0.000907785
0 0 0
0.00215644 0.000434026 0.000795039
0.00434512 0.000622875 0.000942465
0.00654296 0.000665472 0.000995726
0.00878042 0.000674302 0.00100688
0.0110384 0.000673626 0.00100817
0.0133059 0.000672273 0.00100744
0.0155767 0.000671444 0.00100684
0.0178485 0.000671085 0.00100653
0.0201206 0.000670955 0.00100641
0.0223926 0.000670918 0.00100637
0.0246647 0.000670917 0.00100637
0.0269367 0.00067094 0.00100639
0.0292087 0.000671002 0.00100644
0.0314805 0.000671116 0.00100651
0.0337516 0.000671239 0.00100651
0.0360213 0.000670895 0.00100597
0.0382879 0.000668605 0.00100291
0.040552 0.0006576 0.000994472
0.0428122 0.000629677 0.000944146
0.045 0.000610482 0.000902542
0 0 0
0.00212725 0.000199281 0.000830302
0.00428228 0.000305377 0.000961676
0.00650877 0.00033562 0.00100499
0.00876553 0.000338823 0.00100975
0.0110332 0.000337692 0.00100898
0.0133044 0.000336463 0.00100758
0.0155764 0.00033583 0.00100683
0.0178485 0.00033557 0.00100651
0.0201206 0.000335482 0.0010064
0.0223926 0.000335459 0.00100637
0.0246647 0.000335459 0.00100637
0.0269368 0.000335476 0.00100639
0.0292088 0.000335522 0.00100644
0.0314808 0.000335618 0.00100656
0.0337526 0.000335747 0.00100668
0.0360237 0.000335699 0.00100656
0.0382928 0.000334148 0.0010043
0.0405563 0.000327501 0.000996776
0.0428131 0.000314871 0.00094206
0.045 0.000306865 0.000895253
0 0 0
0.00211976 -4.45796e-18 0.000841106
0.00426549 -7.81386e-18 0.000971652
0.0064938 -7.59494e-18 0.00100892
0.008759 -4.34016e-18 0.00101135
0.0110307 -1.98062e-19 0.00100939
0.0133036 2.91679e-18 0.00100767
0.0155762 2.69451e-18 0.00100683
0.0178484 1.17388e-18 0.0010065
0.0201206 -2.41487e-18 0.00100639
0.0223927 -4.30903e-18 0.00100636
0.0246647 -5.07639e-18 0.00100637
0.0269368 -4.34382e-18 0.00100639
0.0292089 -6.93556e-19 0.00100645
0.031481 2.30089e-18 0.00100658
0.033753 5.44917e-18 0.00100678
0.0360248 7.0464e-18 0.00100684
0.0382943 8.06386e-18 0.00100496
0.040557 9.27021e-18 0.000997392
0.0428128 8.05668e-18 0.000941115
0.045 4.57654e-18 0.000892839
0 0 0
0.00212725 -0.000199281 0.000830302
0.00428228 -0.000305377 0.000961676
0.00650877 -0.00033562 0.00100499
0.00876553 -0.000338823 0.00100975
0.0110332 -0.000337692 0.00100898
0.0133044 -0.000336463 0.00100758
0.0155764 -0.00033583 0.00100683
0.0178485 -0.00033557 0.00100651
0.0201206 -0.000335482 0.0010064
0.0223926 -0.000335459 0.00100637
0.0246647 -0.000335459 0.00100637
0.0269368 -0.000335476 0.00100639
0.0292088 -0.000335522 0.00100644
0.0314808 -0.000335618 0.00100656
0.0337526 -0.000335747 0.00100668
0.0360237 -0.000335699 0.00100656
0.0382928 -0.000334148 0.0010043
0.0405563 -0.000327501 0.000996776
0.0428131 -0.000314871 0.00094206
0.045 -0.000306865 0.000895253
0 0 0
0.00215644 -0.000434026 0.000795039
0.00434512 -0.000622875 0.000942465
0.00654296 -0.000665472 0.000995726
0.00878042 -0.000674302 0.00100688
0.0110384 -0.000673626 0.00100817
0.0133059 -0.000672273 0.00100744
0.0155767 -0.000671444 0.00100684
0.0178485 -0.000671085 0.00100653
0.0201206 -0.000670955 0.00100641
0.0223926 -0.000670918 0.00100637
0.0246647 -0.000670917 0.00100637
0.0269367 -0.00067094 0.00100639
0.0292087 -0.000671002 0.00100644
0.0314805 -0.000671116 0.00100651
0.0337516 -0.000671239 0.00100651
0.0360213 -0.000670895 0.00100597
0.0382879 -0.000668605 0.00100291
0.040552 -0.0006576 0.000994472
0.0428122 -0.000629677 0.000944146
0.045 -0.000610482 0.000902542
0 0 0
0.00232051 -0.000784043 0.000784043
0.00442294 -0.000929502 0.000929502
0.00657341 -0.000992654 0.000992654
0.0087907 -0.00100567 0.00100567
0.0110412 -0.00100794 0.00100794
0.0133064 -0.00100741 0.00100741
0.0155767 -0.00100685 0.00100685
0.0178484 -0.00100655 0.00100655
0.0201205 -0.00100642 0.00100642
0.0223926 -0.00100638 0.00100638
0.0246647 -0.00100637 0.00100637
0.0269367 -0.00100639 0.00100639
0.0292087 -0.00100644 0.00100644
0.0314803 -0.0010065 0.0010065
0.033751 -0.00100644 0.00100644
0.0360193 -0.00100576 0.00100576
0.0382827 -0.00100214 0.00100214
0.0405391 -0.000992651 0.000992651
0.0427983 -0.000945464 0.000945464
0.045 -0.000907785 0.000907785
0 0 0
0.00215644 0.000795039 0.000434026
0.00434512 0.000942465 0.000622875
0.00654296 0.000995726 0.000665472
0.00878042 0.00100688 0.000674302
0.0110384 0.00100817 0.000673626
0.0133059 0.00100744 0.000672273
0.0155767 0.00100684 0.000671444
0.0178485 0.00100653 0.000671085
0.0201206 0.00100641 0.000670955
0.0223926 0.00100637 0.000670918
0.0246647 0.00100637 0.000670917
0.0269367 0.00100639 0.00067094
0.0292087 0.00100644 0.000671002
0.0314805 0.00100651 0.000671116
0.0337516 0.00100651 0.000671239
0.0360213 0.00100597 0.000670895
0.0382879 0.00100291 0.000668605
0.040552 0.000994472 0.0006576
0.0428122 0.000944146 0.000629677
0.045 0.000902542 0.000610482
0 0 0
0.00198376 0.000432346 0.000432346
0.00427026 0.000622523 0.000622523
0.00651519 0.000665036 0.000665036
0.00877107 0.000674021 0.000674021
0.011036 0.00067353 0.00067353
0.0133055 0.000672237 0.000672237
0.0155767 0.000671435 0.000671435
0.0178486 0.000671083 0.000671083
0.0201206 0.000670955 0.000670955
0.0223926 0.000670918 0.000670918
0.0246647 0.000670917 0.000670917
0.0269367 0.00067094 0.00067094
0.0292087 0.000670999 0.000670999
0.0314806 0.000671109 0.000671109
0.0337522 0.000671222 0.000671222
0.0360231 0.000670862 0.000670862
0.0382928 0.000668624 0.000668624
0.0405655 0.000657662 0.000657662
0.0428269 0.000629475 0.000629475
0.045 0.000609678 0.000609678
0 0 0
0.00195437 0.000193814 0.000449102
0.00420892 0.000301195 0.000635742
0.00648293 0.000333694 0.000670787
0.00875739 0.000338058 0.000675953
0.0110312 0.00033745 0.000674025
0.0133041 0.000336404 0.000672321
0.0155764 0.000335821 0.000671426
0.0178486 0.000335572 0.000671067
0.0201206 0.000335484 0.000670945
0.0223927 0.00033546 0.000670913
0.0246647 0.00033546 0.000670914
0.0269368 0.000335476 0.000670938
0.0292088 0.000335519 0.000671002
0.0314809 0.000335604 0.000671137
0.0337531 0.000335699 0.000671341
0.0360253 0.000335573 0.000671243
0.0382976 0.000333889 0.000669566
0.0405702 0.000327229 0.00065873
0.0428284 0.000315101 0.000628029
0.045 0.000307359 0.000605625
0 0 0
0.00194607 -1.58669e-17 0.000456483
0.0041929 -2.83437e-17 0.000642242
0.00646888 -2.96376e-17 0.000673891
0.00875135 -1.95196e-17 0.000677059
0.0110289 -5.50568e-18 0.000674338
0.0133034 4.28944e-18 0.000672381
0.0155762 6.04429e-18 0.000671428
0.0178485 1.53505e-18 0.00067106
0.0201206 -6.5163e-18 0.000670941
0.0223927 -1.37159e-17 0.000670911
0.0246647 -1.89706e-17 0.000670913
0.0269368 -1.90834e-17 0.000670937
0.0292089 -1.2603e-17 0.000671005
0.0314811 -1.41861e-18 0.000671155
0.0337535 1.10601e-17 0.000671411
0.0360263 2.19017e-17 0.000671453
0.0382991 3.29349e-17 0.000670015
0.0405711 3.87697e-17 0.000659085
0.0428284 4.11444e-17 0.000627354
0.045 1.54853e-17 0.000604021
0 0 0
0.00195437 -0.000193814 0.000449102
0.00420892 -0.000301195 0.000635742
0.00648293 -0.000333694 0.000670787
0.00875739 -0.000338058 0.000675953
0.0110312 -0.00033745 0.000674025
0.0133041 -0.000336404 0.000672321
0.0155764 -0.000335821 0.000671426
0.0178486 -0.000335572 0.000671067
0.0201206 -0.000335484 0.000670945
0.0223927 -0.00033546 0.000670913
0.0246647 -0.00033546 0.000670914
0.0269368 -0.000335476 0.000670938
0.0292088 -0.000335519 0.000671002
0.0314809 -0.000335604 0.000671137
0.0337531 -0.000335699 0.000671341
0.0360253 -0.000335573 0.000671243
0.0382976 -0.000333889 0.000669566
0.0405702 -0.000327229 0.00065873
0.0428284 -0.000315101 0.000628029
0.045 -0.000307359 0.000605625
0 0 0
0.00198376 -0.000432346 0.000432346
0.00427026 -0.000622523 0.000622523
0.00651519 -0.000665036 0.000665036
0.00877107 -0.000674021 0.000674021
0.011036 -0.00067353 0.00067353
0.0133055 -0.000672237 0.000672237
0.0155767 -0.000671435 0.000671435
0.0178486 -0.000671083 0.000671083
0.0201206 -0.000670955 0.000670955
0.0223926 -0.000670918 0.000670918
0.0246647 -0.000670917 0.000670917
0.0269367 -0.00067094 0.00067094
0.0292087 -0.000670999 0.000670999
0.0314806 -0.000671109 0.000671109
0.0337522 -0.000671222 0.000671222
0.0360231 -0.000670862 0.000670862
0.0382928 -0.000668624 0.000668624
0.0405655 -0.000657662 0.000657662
0.0428269 -0.000629475 0.000629475
0.045 -0.000609678 0.000609678
0 0 0
0.00215644 -0.000795039 0.000434026
0.00434512 -0.000942465 0.000622875
0.00654296 -0.000995726 0.000665472
0.00878042 -0.00100688 0.000674302
0.0110384 -0.00100817 0.000673626
0.0133059 -0.00100744 0.000672273
0.0155767 -0.00100684 0.000671444
0.0178485 -0.00100653 0.000671085
0.0201206 -0.00100641 0.000670955
0.0223926 -0.00100637 0.000670918
0.0246647 -0.00100637 0.000670917
0.0269367 -0.00100639 0.00067094
0.0292087 -0.00100644 0.000671002
0.0314805 -0.00100651 0.000671116
0.0337516 -0.00100651 0.000671239
0.0360213 -0.00100597 0.000670895
0.0382879 -0.00100291 0.000668605
0.040552 -0.000994472 0.0006576
0.0428122 -0.000944146 0.000629677
0.045 -0.000902542 0.000610482
0 0 0
0.00212725 0.000830302 0.000199281
0.00428228 0.000961676 0.000305377
0.00650877 0.00100499 0.00033562
0.00876553 0.00100975 0.000338823
0.0110332 0.00100898 0.000337692
0.0133044 0.00100758 0.000336463
0.0155764 0.00100683 0.00033583
0.0178485 0.00100651 0.00033557
0.0201206 0.0010064 0.000335482
0.0223926 0.00100637 0.000335459
0.0246647 0.00100637 0.000335459
0.0269368 0.00100639 0.000335476
0.0292088 0.00100644 0.000335522
0.0314808 0.00100656 0.000335618
0.0337526 0.00100668 0.000335747
0.0360237 0.00100656 0.000335699
0.0382928 0.0010043 0.000334148
0.0405563 0.000996776 0.000327501
0.0428131 0.00094206 0.000314871
0.045 0.000895253 0.000306865
0 0 0
0.00195437 0.000449102 0.000193814
0.00420892 0.000635742 0.000301195
0.00648293 0.000670787 0.000333694
0.00875739 0.000675953 0.000338058
0.0110312 0.000674025 0.00033745
0.0133041 0.000672321 0.000336404
0.0155764 0.000671426 0.000335821
0.0178486 0.000671067 0.000335572
0.0201206 0.000670945 0.000335484
0.0223927 0.000670913 0.00033546
0.0246647 0.000670914 0.00033546
0.0269368 0.000670938 0.000335476
0.0292088 0.000671002 0.000335519
0.0314809 0.000671137 0.000335604
0.0337531 0.000671341 0.000335699
0.0360253 0.000671243 0.000335573
0.0382976 0.000669566 0.000333889
0.0405702 0.00065873 0.000327229
0.0428284 0.000628029 0.000315101
0.045 0.000605625 0.000307359
0 0 0
0.00192698 0.00020072 0.00020072
0.00414502 0.000306673 0.000306673
0.00645029 0.000336379 0.000336379
0.00874382 0.000338942 0.000338942
0.0110266 0.000337677 0.000337677
0.0133028 0.000336439 0.000336439
0.0155761 0.000335816 0.000335816
0.0178485 0.000335564 0.000335564
0.0201206 0.00033548 0.00033548
0.0223927 0.000335458 0.000335458
0.0246647 0.000335459 0.000335459
0.0269368 0.000335475 0.000335475
0.0292089 0.00033552 0.00033552
0.0314812 0.000335617 0.000335617
0.033754 0.000335754 0.000335754
0.0360276 0.000335757 0.000335757
0.0383027 0.000334283 0.000334283
0.0405748 0.000327575 0.000327575
0.0428291 0.000314473 0.000314473
0.045 0.000305731 0.000305731
0 0 0
0.0019193 -1.87259e-17 0.000203912
0.00412853 -3.38471e-17 0.000309691
0.00643577 -3.70425e-17 0.000337898
0.0087378 -2.80754e-17 0.000339496
0.0110244 -1.52359e-17 0.000337828
0.0133021 -6.49185e-18 0.000336468
0.015576 -5.70255e-18 0.000335816
0.0178485 -8.86781e-18 0.000335561
0.0201206 -1.41544e-17 0.000335478
0.0223927 -1.68673e-17 0.000335457
0.0246647 -1.76528e-17 0.000335458
0.0269368 -1.30303e-17 0.000335475
0.0292089 -1.31381e-18 0.000335521
0.0314813 1.22462e-17 0.000335625
0.0337544 2.38555e-17 0.000335789
0.0360287 3.24153e-17 0.000335861
0.0383043 3.82064e-17 0.00033449
0.0405757 4.17397e-17 0.00032771
0.0428289 4.41704e-17 0.00031415
0.045 1.62601e-17 0.000304995
0 0 0
0.00192698 -0.00020072 0.00020072
0.00414502 -0.000306673 0.000306673
0.00645029 -0.000336379 0.000336379
0.00874382 -0.000338942 0.000338942
0.0110266 -0.000337677 0.000337677
0.0133028 -0.000336439 0.000336439
0.0155761 -0.000335816 0.000335816
0.0178485 -0.000335564 0.000335564
0.0201206 -0.00033548 0.00033548
0.0223927 -0.000335458 0.000335458
0.0246647 -0.000335459 0.000335459
0.0269368 -0.000335475 0.000335475
0.0292089 -0.00033552 0.00033552
0.0314812 -0.000335617 0.000335617
0.033754 -0.000335754 0.000335754
0.0360276 -0.000335757 0.000335757
0.0383027 -0.000334283 0.000334283
0.0405748 -0.000327575 0.000327575
0.0428291 -0.000314473 0.000314473
0.045 -0.000305731 0.000305731
0 0 0
0.00195437 -0.000449102 0.000193814
0.00420892 -0.000635742 0.000301195
0.00648293 -0.000670787 0.000333694
0.00875739 -0.000675953 0.000338058
0.0110312 -0.000674025 0.00033745
0.0133041 -0.000672321 0.000336404
0.0155764 -0.000671426 0.000335821
0.0178486 -0.000671067 0.000335572
0.0201206 -0.000670945 0.000335484
0.0223927 -0.000670913 0.00033546
0.0246647 -0.000670914 0.00033546
0.0269368 -0.000670938 0.000335476
0.0292088 -0.000671002 0.000335519
0.0314809 -0.000671137 0.000335604
0.0337531 -0.000671341 0.000335699
0.0360253 -0.000671243 0.000335573
0.0382976 -0.000669566 0.000333889
0.0405702 -0.00065873 0.000327229
0.0428284 -0.000628029 0.000315101
0.045 -0.000605625 0.000307359
0 0 0
0.00212725 -0.000830302 0.000199281
0.00428228 -0.000961676 0.000305377
0.00650877 -0.00100499 0.00033562
0.00876553 -0.00100975 0.000338823
0.0110332 -0.00100898 0.000337692
0.0133044 -0.00100758 0.000336463
0.0155764 -0.00100683 0.00033583
0.0178485 -0.00100651 0.00033557
0.0201206 -0.0010064 0.000335482
0.0223926 -0.00100637 0.000335459
0.0246647 -0.00100637 0.000335459
0.0269368 -0.00100639 0.000335476
0.0292088 -0.00100644 0.000335522
0.0314808 -0.00100656 0.000335618
0.0337526 -0.00100668 0.000335747
0.0360237 -0.00100656 0.000335699
0.0382928 -0.0010043 0.000334148
0.0405563 -0.000996776 0.000327501
0.0428131 -0.00094206 0.000314871
0.045 -0.000895253 0.000306865
0 0 0
0.00211976 0.000841106 -2.13204e-18
0.00426549 0.000971652 -4.11844e-18
0.0064938 0.00100892 -3.45605e-18
0.008759 0.00101135 -1.07905e-18
0.0110307 0.00100939 2.03046e-18
0.0133036 0.00100767 3.72044e-18
0.0155762 0.00100683 2.89647e-18
0.0178484 0.0010065 8.0522e-19
0.0201206 0.00100639 -1.82049e-18
0.0223927 0.00100636 -1.83347e-18
0.0246647 0.00100637 -9.66059e-19
0.0269368 0.00100639 2.19951e-18
0.0292089 0.00100645 7.13652e-18
0.031481 0.00100658 7.14611e-18
0.033753 0.00100678 7.77165e-18
0.0360248 0.00100684 5.53454e-18
0.0382943 0.00100496 7.17768e-19
0.040557 0.000997392 -3.50682e-18
0.0428128 0.000941115 -5.9244e-18
0.045 0.000892839 9.73542e-19
0 0 0
0.00194607 0.000456483 -4.86745e-18
0.0041929 0.000642242 -8.548e-18
0.00646888 0.000673891 -8.76365e-18
0.00875135 0.000677059 -4.0322e-18
0.0110289 0.000674338 8.62715e-19
0.0133034 0.000672381 2.37783e-18
0.0155762 0.000671428 -9.80762e-19
0.0178485 0.00067106 -6.72951e-18
0.0201206 0.000670941 -1.00521e-17
0.0223927 0.000670911 -7.45254e-18
0.0246647 0.000670913 1.65503e-19
0.0269368 0.000670937 1.18386e-17
0.0292089 0.000671005 2.44433e-17
0.0314811 0.000671155 2.90466e-17
0.0337535 0.000671411 2.54715e-17
0.0360263 0.000671453 1.16338e-17
0.0382991 0.000670015 -7.97469e-18
0.0405711 0.000659085 -2.57387e-17
0.0428284 0.000627354 -3.03321e-17
0.045 0.000604021 -8.65708e-18
0 0 0
0.0019193 0.000203912 -6.94916e-18
0.00412853 0.000309691 -1.25333e-17
0.00643577 0.000337898 -1.29948e-17
0.0087378 0.000339496 -6.93977e-18
0.0110244 0.000337828 6.64125e-19
0.0133021 0.000336468 3.72825e-18
0.015576 0.000335816 7.19363e-19
0.0178485 0.000335561 -5.4295e-18
0.0201206 0.000335478 -9.45513e-18
0.0223927 0.000335457 -8.07861e-18
0.0246647 0.000335458 -1.90173e-18
0.0269368 0.000335475 7.80015e-18
0.0292089 0.000335521 1.97346e-17
0.0314813 0.000335625 2.52545e-17
0.0337544 0.000335789 2.34407e-17
0.0360287 0.000335861 1.28702e-17
0.0383043 0.00033449 -4.38322e-18
0.0405757 0.00032771 -1.93147e-17
0.0428289 0.00031415 -2.25952e-17
0.045 0.000304995 -4.8782e-18
0 0 0
0.00191171 -9.07403e-18 -1.26191e-18
0.00411182 -1.83082e-17 -3.63264e-18
0.00642101 -2.43602e-17 -5.78917e-18
0.00873173 -2.69765e-17 -5.72337e-18
0.0110221 -2.80236e-17 -4.38105e-18
0.0133014 -2.9333e-17 -3.30206e-18
0.0155758 -2.92054e-17 -3.53394e-18
0.0178485 -2.542e-17 -3.32481e-18
0.0201207 -1.80107e-17 -1.31897e-18
0.0223927 -8.11399e-18 2.12121e-18
0.0246647 -1.33919e-20 3.30705e-18
0.0269368 7.41524e-18 3.9163e-18
0.029209 1.74304e-17 5.57442e-18
0.0314815 2.50749e-17 4.77285e-18
0.0337548 2.90502e-17 5.20556e-18
0.0360298 2.94281e-17 4.66909e-18
0.0383059 2.94123e-17 3.3225e-18
0.0405765 3.07923e-17 2.91822e-18
0.0428286 3.22371e-17 4.76249e-18
0.045 1.29791e-17 3.09159e-18
0 0 0
0.0019193 -0.000203912 4.52833e-18
0.00412853 -0.000309691 6.20656e-18
0.00643577 -0.000337898 2.94375e-18
0.0087378 -0.000339496 -2.50577e-18
0.0110244 -0.000337828 -7.47878e-18
0.0133021 -0.000336468 -8.93607e-18
0.015576 -0.000335816 -6.12926e-18
0.0178485 -0.000335561 4.23029e-19
0.0201206 -0.000335478 8.0288e-18
0.0223927 -0.000335457 1.23272e-17
0.0246647 -0.000335458 8.93873e-18
0.0269368 -0.000335475 -4.82015e-19
0.0292089 -0.000335521 -9.27905e-18
0.0314813 -0.000335625 -1.61154e-17
0.0337544 -0.000335789 -1.34081e-17
0.0360287 -0.000335861 -3.4839e-18
0.0383043 -0.00033449 1.04791e-17
0.0405757 -0.00032771 2.52106e-17
0.0428289 -0.00031415 3.16408e-17
0.045 -0.000304995 1.14073e-17
0 0 0
0.00194607 -0.000456483 3.5941e-18
0.0041929 -0.000642242 4.97334e-18
0.00646888 -0.000673891 3.04116e-18
0.00875135 -0.000677059 -1.30209e-18
0.0110289 -0.000674338 -4.68499e-18
0.0133034 -0.000672381 -4.94579e-18
0.0155762 -0.000671428 -1.35116e-18
0.0178485 -0.00067106 4.92615e-18
0.0201206 -0.000670941 1.0465e-17
0.0223927 -0.000670911 1.18788e-17
0.0246647 -0.000670913 5.72582e-18
0.0269368 -0.000670937 -5.78224e-18
0.0292089 -0.000671005 -1.54651e-17
0.0314811 -0.000671155 -2.24905e-17
0.0337535 -0.000671411 -1.82777e-17
0.0360263 -0.000671453 -4.31087e-18
0.0382991 -0.000670015 1.33558e-17
0.0405711 -0.000659085 3.01372e-17
0.0428284 -0.000627354 3.69582e-17
0.045 -0.000604021 1.23031e-17
0 0 0
0.00211976 -0.000841106 2.38026e-18
0.00426549 -0.000971652 3.57135e-18
0.0064938 -0.00100892 2.8221e-18
0.008759 -0.00101135 4.36756e-19
0.0110307 -0.00100939 -1.94493e-18
0.0133036 -0.00100767 -3.74176e-18
0.0155762 -0.00100683 -2.12307e-18
0.0178484 -0.0010065 2.55754e-21
0.0201206 -0.00100639 3.4863e-18
0.0223927 -0.00100636 4.79344e-18
0.0246647 -0.00100637 3.7442e-18
0.0269368 -0.00100639 9.98469e-19
0.0292089 -0.00100645 -1.87397e-18
0.031481 -0.00100658 -3.71132e-18
0.033753 -0.00100678 -3.39394e-18
0.0360248 -0.00100684 -2.13012e-19
0.0382943 -0.00100496 3.49078e-18
0.040557 -0.000997392 7.07446e-18
0.0428128 -0.000941115 7.89038e-18
0.045 -0.000892839 1.5455e-18
0 0 0
0.00212725 0.000830302 -0.000199281
0.00428228 0.000961676 -0.000305377
0.00650877 0.00100499 -0.00033562
0.00876553 0.00100975 -0.000338823
0.0110332 0.00100898 -0.000337692
0.0133044 0.00100758 -0.000336463
0.0155764 0.00100683 -0.00033583
0.0178485 0.00100651 -0.00033557
0.0201206 0.0010064 -0.000335482
0.0223926 0.00100637 -0.000335459
0.0246647 0.00100637 -0.000335459
0.0269368 0.00100639 -0.000335476
0.0292088 0.00100644 -0.000335522
0.0314808 0.00100656 -0.000335618
0.0337526 0.00100668 -0.000335747
0.0360237 0.00100656 -0.000335699
0.0382928 0.0010043 -0.000334148
0.0405563 0.000996776 -0.000327501
0.0428131 0.00094206 -0.000314871
0.045 0.000895253 -0.000306865
0 0 0