<?xml version="1.0"?>
<VTKFile type="UnstructuredGrid" version="0.1" byte_order="LittleEndian">
<UnstructuredGrid>
<Piece NumberOfPoints="1029" NumberOfCells="720">
<Points>
<DataArray type="Float32" NumberOfComponents="3" format="ascii">
0 0 0
0.005 0 0
0.01 0 0
0.015 0 0
0.02 0 0
0.025 0 0
0.03 0 0
0.035 0 0
0.04 0 0
0.045 0 0
0.05 0 0
0.055 0 0
0.06 0 0
0.065 0 0
0.07 0 0
0.075 0 0
0.08 0 0
0.085 0 0
0.09 0 0
0.095 0 0
0.1 0 0
0 0.005 0
0.005 0.005 0
0.01 0.005 0
0.015 0.005 0
0.02 0.005 0
0.025 0.005 0
0.03 0.005 0
0.035 0.005 0
0.04 0.005 0
0.045 0.005 0
0.05 0.005 0
0.055 0.005 0
0.06 0.005 0
0.065 0.005 0
0.07 0.005 0
0.075 0.005 0
0.08 0.005 0
0.085 0.005 0
0.09 0.005 0
0.095 0.005 0
0.1 0.005 0
0 0.01 0
0.005 0.01 0
0.01 0.01 0
0.015 0.01 0
0.02 0.01 0
0.025 0.01 0
0.03 0.01 0
0.035 0.01 0
0.04 0.01 0
0.045 0.01 0
0.05 0.01 0
0.055 0.01 0
0.06 0.01 0
0.065 0.01 0
0.07 0.01 0
0.075 0.01 0
0.08 0.01 0
0.085 0.01 0
0.09 0.01 0
0.095 0.01 0
0.1 0.01 0
0 0.015 0
0.005 0.015 0
0.01 0.015 0
0.015 0.015 0
0.02 0.015 0
0.025 0.015 0
0.03 0.015 0
0.035 0.015 0
0.04 0.015 0
0.045 0.015 0
0.05 0.015 0
0.055 0.015 0
0.06 0.015 0
0.065 0.015 0
0.07 0.015 0
0.075 0.015 0
0.08 0.015 0
0.085 0.015 0
0.09 0.015 0
0.095 0.015 0
0.1 0.015 0
0 0.02 0
0.005 0.02 0
0.01 0.02 0
0.015 0.02 0
0.02 0.02 0
0.025 0.02 0
0.03 0.02 0
0.035 0.02 0
0.04 0.02 0
0.045 0.02 0
0.05 0.02 0
0.055 0.02 0
0.06 0.02 0
0.065 0.02 0
0.07 0.02 0
0.075 0.02 0
0.08 0.02 0
0.085 0.02 0
0.09 0.02 0
0.095 0.02 0
0.1 0.02 0
0 0.025 0
0.005 0.025 0
0.01 0.025 0
0.015 0.025 0
0.02 0.025 0
0.025 0.025 0
0.03 0.025 0
0.035 0.025 0
0.04 0.025 0
0.045 0.025 0
0.05 0.025 0
0.055 0.025 0
0.06 0.025 0
0.065 0.025 0
0.07 0.025 0
0.075 0.025 0
0.08 0.025 0
0.085 0.025 0
0.09 0.025 0
0.095 0.025 0
0.1 0.025 0
0 0.03 0
0.005 0.03 0
0.01 0.03 0
0.015 0.03 0
0.02 0.03 0
0.025 0.03 0
0.03 0.03 0
0.035 0.03 0
0.04 0.03 0
0.045 0.03 0
0.05 0.03 0
0.055 0.03 0
0.06 0.03 0
0.065 0.03 0
0.07 0.03 0
0.075 0.03 0
0.08 0.03 0
0.085 0.03 0
0.09 0.03 0
0.095 0.03 0
0.1 0.03 0
0 0 0.005
0.005 0 0.005
0.01 0 0.005
0.015 0 0.005
0.02 0 0.005
0.025 0 0.005
0.03 0 0.005
0.035 0 0.005
0.04 0 0.005
0.045 0 0.005
0.05 0 0.005
0.055 0 0.005
0.06 0 0.005
0.065 0 0.005
0.07 0 0.005
0.075 0 0.005
0.08 0 0.005
0.085 0 0.005
0.09 0 0.005
0.095 0 0.005
0.1 0 0.005
0 0.005 0.005
0.005 0.005 0.005
0.01 0.005 0.005
0.015 0.005 0.005
0.02 0.005 0.005
0.025 0.005 0.005
0.03 0.005 0.005
0.035 0.005 0.005
0.04 0.005 0.005
0.045 0.005 0.005
0.05 0.005 0.005
0.055 0.005 0.005
0.06 0.005 0.005
0.065 0.005 0.005
0.07 0.005 0.005
0.075 0.005 0.005
0.08 0.005 0.005
0.085 0.005 0.005
0.09 0.005 0.005
0.095 0.005 0.005
0.1 0.005 0.005
0 0.01 0.005
0.005 0.01 0.005
0.01 0.01 0.005
0.015 0.01 0.005
0.02 0.01 0.005
0.025 0.01 0.005
0.03 0.01 0.005
0.035 0.01 0.005
0.04 0.01 0.005
0.045 0.01 0.005
0.05 0.01 0.005
0.055 0.01 0.005
0.06 0.01 0.005
0.065 0.01 0.005
0.07 0.01 0.005
0.075 0.01 0.005
0.08 0.01 0.005
0.085 0.01 0.005
0.09 0.01 0.005
0.095 0.01 0.005
0.1 0.01 0.005
0 0.015 0.005
0.005 0.015 0.005
0.01 0.015 0.005
0.015 0.015 0.005
0.02 0.015 0.005
0.025 0.015 0.005
0.03 0.015 0.005
0.035 0.015 0.005
0.04 0.015 0.005
0.045 0.015 0.005
0.05 0.015 0.005
0.055 0.015 0.005
0.06 0.015 0.005
0.065 0.015 0.005
0.07 0.015 0.005
0.075 0.015 0.005
0.08 0.015 0.005
0.085 0.015 0.005
0.09 0.015 0.005
0.095 0.015 0.005
0.1 0.015 0.005
0 0.02 0.005
0.005 0.02 0.005
0.01 0.02 0.005
0.015 0.02 0.005
0.02 0.02 0.005
0.025 0.02 0.005
0.03 0.02 0.005
0.035 0.02 0.005
0.04 0.02 0.005
0.045 0.02 0.005
0.05 0.02 0.005
0.055 0.02 0.005
0.06 0.02 0.005
0.065 0.02 0.005
0.07 0.02 0.005
0.075 0.02 0.005
0.08 0.02 0.005
0.085 0.02 0.005
0.09 0.02 0.005
0.095 0.02 0.005
0.1 0.02 0.005
0 0.025 0.005
0.005 0.025 0.005
0.01 0.025 0.005
0.015 0.025 0.005
0.02 0.025 0.005
0.025 0.025 0.005
0.03 0.025 0.005
0.035 0.025 0.005
0.04 0.025 0.005
0.045 0.025 0.005
0.05 0.025 0.005
0.055 0.025 0.005
0.06 0.025 0.005
0.065 0.025 0.005
0.07 0.025 0.005
0.075 0.025 0.005
0.08 0.025 0.005
0.085 0.025 0.005
0.09 0.025 0.005
0.095 0.025 0.005
0.1 0.025 0.005
0 0.03 0.005
0.005 0.03 0.005
0.01 0.03 0.005
0.015 0.03 0.005
0.02 0.03 0.005
0.025 0.03 0.005
0.03 0.03 0.005
0.035 0.03 0.005
0.04 0.03 0.005
0.045 0.03 0.005
0.05 0.03 0.005
0.055 0.03 0.005
0.06 0.03 0.005
0.065 0.03 0.005
0.07 0.03 0.005
0.075 0.03 0.005
0.08 0.03 0.005
0.085 0.03 0.005
0.09 0.03 0.005
0.095 0.03 0.005
0.1 0.03 0.005
0 0 0.01
0.005 0 0.01
0.01 0 0.01
0.015 0 0.01
0.02 0 0.01
0.025 0 0.01
0.03 0 0.01
0.035 0 0.01
0.04 0 0.01
0.045 0 0.01
0.05 0 0.01
0.055 0 0.01
0.06 0 0.01
0.065 0 0.01
0.07 0 0.01
0.075 0 0.01
0.08 0 0.01
0.085 0 0.01
0.09 0 0.01
0.095 0 0.01
0.1 0 0.01
0 0.005 0.01
0.005 0.005 0.01
0.01 0.005 0.01
0.015 0.005 0.01
0.02 0.005 0.01
0.025 0.005 0.01
0.03 0.005 0.01
0.035 0.005 0.01
0.04 0.005 0.01
0.045 0.005 0.01
0.05 0.005 0.01
0.055 0.005 0.01
0.06 0.005 0.01
0.065 0.005 0.01
0.07 0.005 0.01
0.075 0.005 0.01
0.08 0.005 0.01
0.085 0.005 0.01
0.09 0.005 0.01
0.095 0.005 0.01
0.1 0.005 0.01
0 0.01 0.01
0.005 0.01 0.01
0.01 0.01 0.01
0.015 0.01 0.01
0.02 0.01 0.01
0.025 0.01 0.01
0.03 0.01 0.01
0.035 0.01 0.01
0.04 0.01 0.01
0.045 0.01 0.01
0.05 0.01 0.01
0.055 0.01 0.01
0.06 0.01 0.01
0.065 0.01 0.01
0.07 0.01 0.01
0.075 0.01 0.01
0.08 0.01 0.01
0.085 0.01 0.01
0.09 0.01 0.01
0.095 0.01 0.01
0.1 0.01 0.01
0 0.015 0.01
0.005 0.015 0.01
0.01 0.015 0.01
0.015 0.015 0.01
0.02 0.015 0.01
0.025 0.015 0.01
0.03 0.015 0.01
0.035 0.015 0.01
0.04 0.015 0.01
0.045 0.015 0.01
0.05 0.015 0.01
0.055 0.015 0.01
0.06 0.015 0.01
0.065 0.015 0.01
0.07 0.015 0.01
0.075 0.015 0.01
0.08 0.015 0.01
0.085 0.015 0.01
0.09 0.015 0.01
0.095 0.015 0.01
0.1 0.015 0.01
0 0.02 0.01
0.005 0.02 0.01
0.01 0.02 0.01
0.015 0.02 0.01
0.02 0.02 0.01
0.025 0.02 0.01
0.03 0.02 0.01
0.035 0.02 0.01
0.04 0.02 0.01
0.045 0.02 0.01
0.05 0.02 0.01
0.055 0.02 0.01
0.06 0.02 0.01
0.065 0.02 0.01
0.07 0.02 0.01
0.075 0.02 0.01
0.08 0.02 0.01
0.085 0.02 0.01
0.09 0.02 0.01
0.095 0.02 0.01
0.1 0.02 0.01
0 0.025 0.01
0.005 0.025 0.01
0.01 0.025 0.01
0.015 0.025 0.01
0.02 0.025 0.01
0.025 0.025 0.01
0.03 0.025 0.01
0.035 0.025 0.01
0.04 0.025 0.01
0.045 0.025 0.01
0.05 0.025 0.01
0.055 0.025 0.01
0.06 0.025 0.01
0.065 0.025 0.01
0.07 0.025 0.01
0.075 0.025 0.01
0.08 0.025 0.01
0.085 0.025 0.01
0.09 0.025 0.01
0.095 0.025 0.01
0.1 0.025 0.01
0 0.03 0.01
0.005 0.03 0.01
0.01 0.03 0.01
0.015 0.03 0.01
0.02 0.03 0.01
0.025 0.03 0.01
0.03 0.03 0.01
0.035 0.03 0.01
0.04 0.03 0.01
0.045 0.03 0.01
0.05 0.03 0.01
0.055 0.03 0.01
0.06 0.03 0.01
0.065 0.03 0.01
0.07 0.03 0.01
0.075 0.03 0.01
0.08 0.03 0.01
0.085 0.03 0.01
0.09 0.03 0.01
0.095 0.03 0.01
0.1 0.03 0.01
0 0 0.015
0.005 0 0.015
0.01 0 0.015
0.015 0 0.015
0.02 0 0.015
0.025 0 0.015
0.03 0 0.015
0.035 0 0.015
0.04 0 0.015
0.045 0 0.015
0.05 0 0.015
0.055 0 0.015
0.06 0 0.015
0.065 0 0.015
0.07 0 0.015
0.075 0 0.015
0.08 0 0.015
0.085 0 0.015
0.09 0 0.015
0.095 0 0.015
0.1 0 0.015
0 0.005 0.015
0.005 0.005 0.015
0.01 0.005 0.015
0.015 0.005 0.015
0.02 0.005 0.015
0.025 0.005 0.015
0.03 0.005 0.015
0.035 0.005 0.015
0.04 0.005 0.015
0.045 0.005 0.015
0.05 0.005 0.015
0.055 0.005 0.015
0.06 0.005 0.015
0.065 0.005 0.015
0.07 0.005 0.015
0.075 0.005 0.015
0.08 0.005 0.015
0.085 0.005 0.015
0.09 0.005 0.015
0.095 0.005 0.015
0.1 0.005 0.015
0 0.01 0.015
0.005 0.01 0.015
0.01 0.01 0.015
0.015 0.01 0.015
0.02 0.01 0.015
0.025 0.01 0.015
0.03 0.01 0.015
0.035 0.01 0.015
0.04 0.01 0.015
0.045 0.01 0.015
0.05 0.01 0.015
0.055 0.01 0.015
0.06 0.01 0.015
0.065 0.01 0.015
0.07 0.01 0.015
0.075 0.01 0.015
0.08 0.01 0.015
0.085 0.01 0.015
0.09 0.01 0.015
0.095 0.01 0.015
0.1 0.01 0.015
0 0.015 0.015
0.005 0.015 0.015
0.01 0.015 0.015
0.015 0.015 0.015
0.02 0.015 0.015
0.025 0.015 0.015
0.03 0.015 0.015
0.035 0.015 0.015
0.04 0.015 0.015
0.045 0.015 0.015
0.05 0.015 0.015
0.055 0.015 0.015
0.06 0.015 0.015
0.065 0.015 0.015
0.07 0.015 0.015
0.075 0.015 0.015
0.08 0.015 0.015
0.085 0.015 0.015
0.09 0.015 0.015
0.095 0.015 0.015
0.1 0.015 0.015
0 0.02 0.015
0.005 0.02 0.015
0.01 0.02 0.015
0.015 0.02 0.015
0.02 0.02 0.015
0.025 0.02 0.015
0.03 0.02 0.015
0.035 0.02 0.015
0.04 0.02 0.015
0.045 0.02 0.015
0.05 0.02 0.015
0.055 0.02 0.015
0.06 0.02 0.015
0.065 0.02 0.015
0.07 0.02 0.015
0.075 0.02 0.015
0.08 0.02 0.015
0.085 0.02 0.015
0.09 0.02 0.015
0.095 0.02 0.015
0.1 0.02 0.015
0 0.025 0.015
0.005 0.025 0.015
0.01 0.025 0.015
0.015 0.025 0.015
0.02 0.025 0.015
0.025 0.025 0.015
0.03 0.025 0.015
0.035 0.025 0.015
0.04 0.025 0.015
0.045 0.025 0.015
0.05 0.025 0.015
0.055 0.025 0.015
0.06 0.025 0.015
0.065 0.025 0.015
0.07 0.025 0.015
0.075 0.025 0.015
0.08 0.025 0.015
0.085 0.025 0.015
0.09 0.025 0.015
0.095 0.025 0.015
0.1 0.025 0.015
0 0.03 0.015
0.005 0.03 0.015
0.01 0.03 0.015
0.015 0.03 0.015
0.02 0.03 0.015
0.025 0.03 0.015
0.03 0.03 0.015
0.035 0.03 0.015
0.04 0.03 0.015
0.045 0.03 0.015
0.05 0.03 0.015
0.055 0.03 0.015
0.06 0.03 0.015
0.065 0.03 0.015
0.07 0.03 0.015
0.075 0.03 0.015
0.08 0.03 0.015
0.085 0.03 0.015
0.09 0.03 0.015
0.095 0.03 0.015
0.1 0.03 0.015
0 0 0.02
0.005 0 0.02
0.01 0 0.02
0.015 0 0.02
0.02 0 0.02
0.025 0 0.02
0.03 0 0.02
0.035 0 0.02
0.04 0 0.02
0.045 0 0.02
0.05 0 0.02
0.055 0 0.02
0.06 0 0.02
0.065 0 0.02
0.07 0 0.02
0.075 0 0.02
0.08 0 0.02
0.085 0 0.02
0.09 0 0.02
0.095 0 0.02
0.1 0 0.02
0 0.005 0.02
0.005 0.005 0.02
0.01 0.005 0.02
0.015 0.005 0.02
0.02 0.005 0.02
0.025 0.005 0.02
0.03 0.005 0.02
0.035 0.005 0.02
0.04 0.005 0.02
0.045 0.005 0.02
0.05 0.005 0.02
0.055 0.005 0.02
0.06 0.005 0.02
0.065 0.005 0.02
0.07 0.005 0.02
0.075 0.005 0.02
0.08 0.005 0.02
0.085 0.005 0.02
0.09 0.005 0.02
0.095 0.005 0.02
0.1 0.005 0.02
0 0.01 0.02
0.005 0.01 0.02
0.01 0.01 0.02
0.015 0.01 0.02
0.02 0.01 0.02
0.025 0.01 0.02
0.03 0.01 0.02
0.035 0.01 0.02
0.04 0.01 0.02
0.045 0.01 0.02
0.05 0.01 0.02
0.055 0.01 0.02
0.06 0.01 0.02
0.065 0.01 0.02
0.07 0.01 0.02
0.075 0.01 0.02
0.08 0.01 0.02
0.085 0.01 0.02
0.09 0.01 0.02
0.095 0.01 0.02
[...]
<PointData Vectors="Displacement">
<DataArray type="Float32" Name="Displacement" NumberOfComponents="3" format="ascii">
0 0 0
0.00175964 0.000561327 0.000561327
0.00330199 0.000676442 0.000676442
0.00487487 0.000727973 0.000727973
0.00649478 0.000739951 0.000739951
0.00814133 0.000742161 0.000742161
0.0098006 0.000741657 0.000741657
0.0114648 0.000741027 0.000741027
0.0131306 0.000740649 0.000740649
0.0147967 0.00074048 0.00074048
0.016463 0.000740422 0.000740422
0.0181292 0.000740421 0.000740421
0.0197953 0.000740462 0.000740462
0.0214613 0.000740549 0.000740549
0.0231267 0.000740657 0.000740657
0.0247908 0.000740562 0.000740562
0.0264517 0.00073954 0.00073954
0.0281066 0.000734671 0.000734671
0.0297534 0.000722201 0.000722201
0.0314076 0.000666118 0.000666118
0.033 0.000622324 0.000622324
0 0 0
0.00162744 0.000304948 0.000567155
0.00323656 0.00045131 0.000686162
0.00484741 0.000488247 0.000730577
0.00648493 0.000496784 0.000741052
0.00813844 0.000496501 0.00074241
0.00980003 0.000495192 0.000741696
0.0114648 0.000494283 0.000741012
0.0131307 0.000493843 0.000740634
0.0147968 0.000493668 0.000740471
0.016463 0.000493615 0.000740417
0.0181292 0.000493618 0.000740417
0.0197953 0.000493667 0.000740459
0.0214613 0.000493781 0.00074055
0.023127 0.000493974 0.000740679
0.0247918 0.000494143 0.000740667
0.0264546 0.000493581 0.000739836
0.0281139 0.000490268 0.000735647
0.0297706 0.00047608 0.000724203
0.0314257 0.000443174 0.000664389
0.033 0.000421229 0.000616059
0 0 0
0.00160571 0.000139159 0.000588378
0.00318782 0.000219637 0.00069965
0.00481853 0.0002461 0.000737797
0.00647133 0.000249889 0.000743596
0.00813325 0.000249129 0.000743211
0.00979837 0.000247967 0.000741862
0.0114644 0.000247278 0.000741014
0.0131306 0.000246962 0.00074061
0.0147968 0.000246842 0.000740453
0.016463 0.000246808 0.000740407
0.0181292 0.000246812 0.000740411
0.0197953 0.000246847 0.000740455
0.0214615 0.000246931 0.000740561
0.0231275 0.000247089 0.000740753
0.0247933 0.000247269 0.00074093
0.026458 0.000247108 0.000740621
0.0281203 0.000244808 0.000737309
0.029776 0.000236344 0.000726511
0.0314271 0.000221661 0.000661745
0.033 0.000212606 0.000607716
0 0 0
0.00160016 9.90766e-20 0.000594716
0.00317537 1.12781e-18 0.0007064
0.00480639 2.35068e-18 0.000740876
0.00646544 3.93361e-18 0.000744963
0.00813078 4.00347e-18 0.000743623
0.00979753 3.52302e-18 0.000741966
0.0114642 9.39285e-19 0.000741024
0.0131306 -1.60023e-18 0.000740602
0.0147968 -4.06723e-18 0.000740446
0.016463 -4.22688e-18 0.000740402
0.0181292 -4.12486e-18 0.000740408
0.0197954 -3.39345e-18 0.000740454
0.0214616 -2.56651e-18 0.000740569
0.0231278 -2.39245e-18 0.000740793
0.0247939 -1.29646e-18 0.000741073
0.0264595 9.55482e-19 0.000740978
0.0281222 3.01707e-18 0.000738061
0.0297769 5.31511e-18 0.000727076
0.0314268 5.63525e-18 0.000660568
0.033 2.9249e-18 0.000604975
0 0 0
0.00160571 -0.000139159 0.000588378
0.00318782 -0.000219637 0.00069965
0.00481853 -0.0002461 0.000737797
0.00647133 -0.000249889 0.000743596
0.00813325 -0.000249129 0.000743211
0.00979837 -0.000247967 0.000741862
0.0114644 -0.000247278 0.000741014
0.0131306 -0.000246962 0.00074061
0.0147968 -0.000246842 0.000740453
0.016463 -0.000246808 0.000740407
0.0181292 -0.000246812 0.000740411
0.0197953 -0.000246847 0.000740455
0.0214615 -0.000246931 0.000740561
0.0231275 -0.000247089 0.000740753
0.0247933 -0.000247269 0.00074093
0.026458 -0.000247108 0.000740621
0.0281203 -0.000244808 0.000737309
0.029776 -0.000236344 0.000726511
0.0314271 -0.000221661 0.000661745
0.033 -0.000212606 0.000607716
0 0 0
0.00162744 -0.000304948 0.000567155
0.00323656 -0.00045131 0.000686162
0.00484741 -0.000488247 0.000730577
0.00648493 -0.000496784 0.000741052
0.00813844 -0.000496501 0.00074241
0.00980003 -0.000495192 0.000741696
0.0114648 -0.000494283 0.000741012
0.0131307 -0.000493843 0.000740634
0.0147968 -0.000493668 0.000740471
0.016463 -0.000493615 0.000740417
0.0181292 -0.000493618 0.000740417
0.0197953 -0.000493667 0.000740459
0.0214613 -0.000493781 0.00074055
0.023127 -0.000493974 0.000740679
0.0247918 -0.000494143 0.000740667
0.0264546 -0.000493581 0.000739836
0.0281139 -0.000490268 0.000735647
0.0297706 -0.00047608 0.000724203
0.0314257 -0.000443174 0.000664389
0.033 -0.000421229 0.000616059
0 0 0
0.00175964 -0.000561327 0.000561327
0.00330199 -0.000676442 0.000676442
0.00487487 -0.000727973 0.000727973
0.00649478 -0.000739951 0.000739951
0.00814133 -0.000742161 0.000742161
0.0098006 -0.000741657 0.000741657
0.0114648 -0.000741027 0.000741027
0.0131306 -0.000740649 0.000740649
0.0147967 -0.00074048 0.00074048
0.016463 -0.000740422 0.000740422
0.0181292 -0.000740421 0.000740421
0.0197953 -0.000740462 0.000740462
0.0214613 -0.000740549 0.000740549
0.0231267 -0.000740657 0.000740657
0.0247908 -0.000740562 0.000740562
0.0264517 -0.00073954 0.00073954
0.0281066 -0.000734671 0.000734671
0.0297534 -0.000722201 0.000722201
0.0314076 -0.000666118 0.000666118
0.033 -0.000622324 0.000622324
0 0 0
0.00162744 0.000567155 0.000304948
0.00323656 0.000686162 0.00045131
0.00484741 0.000730577 0.000488247
0.00648493 0.000741052 0.000496784
0.00813844 0.00074241 0.000496501
0.00980003 0.000741696 0.000495192
0.0114648 0.000741012 0.000494283
0.0131307 0.000740634 0.000493843
0.0147968 0.000740471 0.000493668
0.016463 0.000740417 0.000493615
0.0181292 0.000740417 0.000493618
0.0197953 0.000740459 0.000493667
0.0214613 0.00074055 0.000493781
0.023127 0.000740679 0.000493974
0.0247918 0.000740667 0.000494143
0.0264546 0.000739836 0.000493581
0.0281139 0.000735647 0.000490268
0.0297706 0.000724203 0.00047608
0.0314257 0.000664389 0.000443174
0.033 0.000616059 0.000421229
0 0 0
0.00148938 0.000303424 0.000303424
0.00317273 0.000450774 0.000450774
0.00482208 0.000487858 0.000487858
0.00647591 0.000496513 0.000496513
0.00813592 0.000496403 0.000496403
0.00979957 0.000495153 0.000495153
0.0114649 0.000494273 0.000494273
0.0131308 0.000493841 0.000493841
0.0147969 0.000493668 0.000493668
0.016463 0.000493615 0.000493615
0.0181292 0.000493618 0.000493618
0.0197953 0.000493666 0.000493666
0.0214613 0.000493777 0.000493777
0.0231272 0.000493963 0.000493963
0.0247927 0.000494115 0.000494115
0.0264573 0.000493532 0.000493532
0.0281209 0.000490269 0.000490269
0.0297884 0.000476104 0.000476104
0.0314452 0.000442961 0.000442961
0.033 0.000420441 0.000420441
0 0 0
0.00146712 0.000135469 0.000312963
0.00312487 0.000216584 0.000459615
0.00479459 0.000244505 0.000492223
0.00646333 0.0002492 0.000498163
0.00813114 0.000248884 0.000496885
0.00979806 0.000247899 0.000495253
0.0114645 0.000247266 0.00049427
0.0131307 0.000246963 0.000493825
0.0147969 0.000246845 0.000493657
0.016463 0.00024681 0.000493609
0.0181292 0.000246813 0.000493614
0.0197953 0.000246846 0.000493663
0.0214615 0.000246925 0.000493783
0.0231277 0.000247065 0.000494008
0.024794 0.000247196 0.000494287
0.0264605 0.000246935 0.000494024
0.0281273 0.000244487 0.00049134
0.0297945 0.000236063 0.0004771
0.0314473 0.00022199 0.000441164
0.033 0.000213283 0.000415861
0 0 0
0.00146086 -1.16991e-18 0.000317286
0.00311285 -2.60836e-19 0.000463852
0.00478313 4.12041e-18 0.000494552
0.00645784 9.80585e-18 0.000499095
0.00812888 1.33704e-17 0.000497184
0.00979729 1.16244e-17 0.000495321
0.0114643 4.23224e-18 0.000494276
0.0131307 -4.62962e-18 0.000493818
0.0147969 -1.19002e-17 0.000493651
0.016463 -1.34857e-17 0.000493605
0.0181292 -1.22716e-17 0.000493612
0.0197953 -1.03526e-17 0.000493663
0.0214616 -9.31194e-18 0.000493789
0.023128 -9.52441e-18 0.000494037
0.0247947 -7.50271e-18 0.000494387
0.0264619 -8.89499e-19 0.000494291
0.0281292 8.91794e-18 0.000491837
0.0297957 1.7585e-17 0.000477403
0.0314473 2.00506e-17 0.000440334
0.033 6.51987e-18 0.000414053
0 0 0
0.00146712 -0.000135469 0.000312963
0.00312487 -0.000216584 0.000459615
0.00479459 -0.000244505 0.000492223
0.00646333 -0.0002492 0.000498163
0.00813114 -0.000248884 0.000496885
0.00979806 -0.000247899 0.000495253
0.0114645 -0.000247266 0.00049427
0.0131307 -0.000246963 0.000493825
0.0147969 -0.000246845 0.000493657
0.016463 -0.00024681 0.000493609
0.0181292 -0.000246813 0.000493614
0.0197953 -0.000246846 0.000493663
0.0214615 -0.000246925 0.000493783
0.0231277 -0.000247065 0.000494008
0.024794 -0.000247196 0.000494287
0.0264605 -0.000246935 0.000494024
0.0281273 -0.000244487 0.00049134
0.0297945 -0.000236063 0.0004771
0.0314473 -0.00022199 0.000441164
0.033 -0.000213283 0.000415861
0 0 0
0.00148938 -0.000303424 0.000303424
0.00317273 -0.000450774 0.000450774
0.00482208 -0.000487858 0.000487858
0.00647591 -0.000496513 0.000496513
0.00813592 -0.000496403 0.000496403
0.00979957 -0.000495153 0.000495153
0.0114649 -0.000494273 0.000494273
0.0131308 -0.000493841 0.000493841
0.0147969 -0.000493668 0.000493668
0.016463 -0.000493615 0.000493615
0.0181292 -0.000493618 0.000493618
0.0197953 -0.000493666 0.000493666
0.0214613 -0.000493777 0.000493777
0.0231272 -0.000493963 0.000493963
0.0247927 -0.000494115 0.000494115
0.0264573 -0.000493532 0.000493532
0.0281209 -0.000490269 0.000490269
0.0297884 -0.000476104 0.000476104
0.0314452 -0.000442961 0.000442961
0.033 -0.000420441 0.000420441
0 0 0
0.00162744 -0.000567155 0.000304948
0.00323656 -0.000686162 0.00045131
0.00484741 -0.000730577 0.000488247
0.00648493 -0.000741052 0.000496784
0.00813844 -0.00074241 0.000496501
0.00980003 -0.000741696 0.000495192
0.0114648 -0.000741012 0.000494283
0.0131307 -0.000740634 0.000493843
0.0147968 -0.000740471 0.000493668
0.016463 -0.000740417 0.000493615
0.0181292 -0.000740417 0.000493618
0.0197953 -0.000740459 0.000493667
0.0214613 -0.00074055 0.000493781
0.023127 -0.000740679 0.000493974
0.0247918 -0.000740667 0.000494143
0.0264546 -0.000739836 0.000493581
0.0281139 -0.000735647 0.000490268
0.0297706 -0.000724203 0.00047608
0.0314257 -0.000664389 0.000443174
0.033 -0.000616059 0.000421229
0 0 0
0.00160571 0.000588378 0.000139159
0.00318782 0.00069965 0.000219637
0.00481853 0.000737797 0.0002461
0.00647133 0.000743596 0.000249889
0.00813325 0.000743211 0.000249129
0.00979837 0.000741862 0.000247967
0.0114644 0.000741014 0.000247278
0.0131306 0.00074061 0.000246962
0.0147968 0.000740453 0.000246842
0.016463 0.000740407 0.000246808
0.0181292 0.000740411 0.000246812
0.0197953 0.000740455 0.000246847
0.0214615 0.000740561 0.000246931
0.0231275 0.000740753 0.000247089
0.0247933 0.00074093 0.000247269
0.026458 0.000740621 0.000247108
0.0281203 0.000737309 0.000244808
0.029776 0.000726511 0.000236344
0.0314271 0.000661745 0.000221661
0.033 0.000607716 0.000212606
0 0 0
0.00146712 0.000312963 0.000135469
0.00312487 0.000459615 0.000216584
0.00479459 0.000492223 0.000244505
0.00646333 0.000498163 0.0002492
0.00813114 0.000496885 0.000248884
0.00979806 0.000495253 0.000247899
0.0114645 0.00049427 0.000247266
0.0131307 0.000493825 0.000246963
0.0147969 0.000493657 0.000246845
0.016463 0.000493609 0.00024681
0.0181292 0.000493614 0.000246813
0.0197953 0.000493663 0.000246846
0.0214615 0.000493783 0.000246925
0.0231277 0.000494008 0.000247065
0.024794 0.000494287 0.000247196
0.0264605 0.000494024 0.000246935
0.0281273 0.00049134 0.000244487
0.0297945 0.0004771 0.000236063
0.0314473 0.000441164 0.00022199
0.033 0.000415861 0.000213283
0 0 0
0.00144619 0.000139313 0.000139313
0.00307556 0.000220083 0.000220083
0.00476671 0.000246469 0.000246469
0.00645077 0.000249943 0.000249943
0.00812651 0.000249102 0.000249102
0.00979663 0.000247941 0.000247941
0.0114642 0.000247264 0.000247264
0.0131307 0.000246956 0.000246956
0.0147969 0.00024684 0.00024684
0.0164631 0.000246807 0.000246807
0.0181292 0.000246811 0.000246811
0.0197954 0.000246845 0.000246845
0.0214616 0.000246928 0.000246928
0.0231282 0.000247085 0.000247085
0.0247954 0.000247275 0.000247275
0.0264638 0.000247164 0.000247164
0.0281339 0.000244915 0.000244915
0.0298004 0.000236345 0.000236345
0.0314485 0.00022123 0.00022123
0.033 0.00021149 0.00021149
0 0 0
0.00144033 -1.73025e-18 0.000141138
0.00306332 -8.63267e-19 0.000222017
0.00475492 3.81218e-18 0.000247579
0.00644527 1.0224e-17 0.000250403
0.00812427 1.41267e-17 0.000249246
0.00979589 1.17359e-17 0.000247975
0.011464 3.0597e-18 0.000247266
0.0131307 -7.62429e-18 0.000246952
0.0147969 -1.51108e-17 0.000246837
0.0164631 -1.55388e-17 0.000246806
0.0181292 -1.24297e-17 0.00024681
0.0197954 -9.09201e-18 0.000246845
0.0214617 -8.3842e-18 0.00024693
0.0231284 -9.71521e-18 0.000247099
0.024796 -8.5825e-18 0.000247325
0.0264653 -2.83908e-18 0.000247294
0.0281359 6.81846e-18 0.000245136
0.0298015 1.58801e-17 0.00023645
0.0314484 1.94378e-17 0.000220838
0.033 5.75285e-18 0.000210664
0 0 0
0.00144619 -0.000139313 0.000139313
0.00307556 -0.000220083 0.000220083
0.00476671 -0.000246469 0.000246469
0.00645077 -0.000249943 0.000249943
0.00812651 -0.000249102 0.000249102
0.00979663 -0.000247941 0.000247941
0.0114642 -0.000247264 0.000247264
0.0131307 -0.000246956 0.000246956
0.0147969 -0.00024684 0.00024684
0.0164631 -0.000246807 0.000246807
0.0181292 -0.000246811 0.000246811
0.0197954 -0.000246845 0.000246845
0.0214616 -0.000246928 0.000246928
0.0231282 -0.000247085 0.000247085
0.0247954 -0.000247275 0.000247275
0.0264638 -0.000247164 0.000247164
0.0281339 -0.000244915 0.000244915
0.0298004 -0.000236345 0.000236345
0.0314485 -0.00022123 0.00022123
0.033 -0.00021149 0.00021149
0 0 0
0.00146712 -0.000312963 0.000135469
0.00312487 -0.000459615 0.000216584
0.00479459 -0.000492223 0.000244505
0.00646333 -0.000498163 0.0002492
0.00813114 -0.000496885 0.000248884
0.00979806 -0.000495253 0.000247899
0.0114645 -0.00049427 0.000247266
0.0131307 -0.000493825 0.000246963
0.0147969 -0.000493657 0.000246845
0.016463 -0.000493609 0.00024681
0.0181292 -0.000493614 0.000246813
0.0197953 -0.000493663 0.000246846
0.0214615 -0.000493783 0.000246925
0.0231277 -0.000494008 0.000247065
0.024794 -0.000494287 0.000247196
0.0264605 -0.000494024 0.000246935
0.0281273 -0.00049134 0.000244487
0.0297945 -0.0004771 0.000236063
0.0314473 -0.000441164 0.00022199
0.033 -0.000415861 0.000213283
0 0 0
0.00160571 -0.000588378 0.000139159
0.00318782 -0.00069965 0.000219637
0.00481853 -0.000737797 0.0002461
0.00647133 -0.000743596 0.000249889
0.00813325 -0.000743211 0.000249129
0.00979837 -0.000741862 0.000247967
0.0114644 -0.000741014 0.000247278
0.0131306 -0.00074061 0.000246962
0.0147968 -0.000740453 0.000246842
0.016463 -0.000740407 0.000246808
0.0181292 -0.000740411 0.000246812
0.0197953 -0.000740455 0.000246847
0.0214615 -0.000740561 0.000246931
0.0231275 -0.000740753 0.000247089
0.0247933 -0.00074093 0.000247269
0.026458 -0.000740621 0.000247108
0.0281203 -0.000737309 0.000244808
0.029776 -0.000726511 0.000236344
0.0314271 -0.000661745 0.000221661
0.033 -0.000607716 0.000212606
0 0 0
0.00160016 0.000594716 1.33797e-18
0.00317537 0.0007064 2.63148e-18
0.00480639 0.000740876 3.87888e-18
0.00646544 0.000744963 4.01291e-18
0.00813078 0.000743623 3.18472e-18
0.00979753 0.000741966 2.31184e-18
0.0114642 0.000741024 4.44586e-19
0.0131306 0.000740602 -9.61825e-19
0.0147968 0.000740446 -2.34244e-18
0.016463 0.000740402 -2.01259e-18
0.0181292 0.000740408 -1.98957e-18
0.0197954 0.000740454 -1.22273e-18
0.0214616 0.000740569 1.11134e-18
0.0231278 0.000740793 -6.09587e-20
0.0247939 0.000741073 1.42877e-18
0.0264595 0.000740978 3.32517e-18
0.0281222 0.000738061 3.38617e-18
0.0297769 0.000727076 3.35573e-18
0.0314268 0.000660568 1.89498e-18
0.033 0.000604975 1.65908e-18
0 0 0
0.00146086 0.000317286 4.34956e-18
0.00311285 0.000463852 8.45711e-18
0.00478313 0.000494552 1.08436e-17
0.00645784 0.000499095 1.04475e-17
0.00812888 0.000497184 7.65239e-18
0.00979729 0.000495321 3.09587e-18
0.0114643 0.000494276 -1.39629e-18
0.0131307 0.000493818 -5.61392e-18
0.0147969 0.000493651 -7.66133e-18
0.016463 0.000493605 -7.90764e-18
0.0181292 0.000493612 -6.7207e-18
0.0197953 0.000493663 -3.9112e-18
0.0214616 0.000493789 -4.73754e-19
0.023128 0.000494037 9.23151e-19
0.0247947 0.000494387 2.65579e-18
0.0264619 0.000494291 3.72431e-18
0.0281292 0.000491837 2.99027e-18
0.0297957 0.000477403 1.58167e-18
0.0314473 0.000440334 1.30426e-18
0.033 0.000414053 1.11673e-18
0 0 0
0.00144033 0.000141138 3.52537e-18
0.00306332 0.000222017 7.60239e-18
0.00475492 0.000247579 1.02694e-17
0.00644527 0.000250403 1.10857e-17
0.00812427 0.000249246 8.66673e-18
0.00979589 0.000247975 4.21737e-18
0.011464 0.000247266 -1.1229e-18
0.0131307 0.000246952 -6.08714e-18
0.0147969 0.000246837 -9.20817e-18
0.0164631 0.000246806 -9.61669e-18
0.0181292 0.00024681 -8.49828e-18
0.0197954 0.000246845 -6.21625e-18
0.0214617 0.00024693 -2.33845e-18
0.0231284 0.000247099 -1.1887e-18
0.024796 0.000247325 1.08402e-18
0.0264653 0.000247294 3.02107e-18
0.0281359 0.000245136 3.5267e-18
0.0298015 0.00023645 3.97813e-18
0.0314484 0.000220838 3.52539e-18
0.033 0.000210664 1.59595e-18
0 0 0
0.00143454 -3.6272e-18 -9.1996e-19
0.00305096 -5.5925e-18 -1.14684e-18
0.00474298 -4.35804e-18 -9.77025e-19
0.0064397 -7.61535e-19 -6.17327e-19
0.00812203 2.49861e-18 -3.51623e-19
0.00979515 2.26574e-18 -7.03682e-19
0.0114638 -1.78348e-18 -9.95075e-19
0.0131307 -6.63557e-18 -1.56683e-18
0.0147969 -8.95821e-18 -1.91384e-18
0.0164631 -5.49417e-18 -1.27997e-18
0.0181292 -7.86412e-19 -9.67108e-19
0.0197954 2.52947e-18 -5.37448e-19
0.0214618 1.9287e-18 7.51543e-19
0.0231287 -2.26368e-18 -9.34379e-19
0.0247967 -5.95247e-18 -9.82135e-19
0.0264668 -6.51214e-18 -1.94543e-19
0.0281379 -3.49249e-18 -1.93059e-19
0.0298026 1.01592e-19 1.41486e-19
0.0314481 3.63625e-18 8.37476e-19
0.033 2.22769e-18 5.63913e-19
0 0 0
0.00144033 -0.000141138 -4.89409e-18
0.00306332 -0.000222017 -9.61573e-18
0.00475492 -0.000247579 -1.20197e-17
0.00644527 -0.000250403 -1.17196e-17
0.00812427 -0.000249246 -9.31612e-18
0.00979589 -0.000247975 -5.21696e-18
0.011464 -0.000247266 -6.39775e-19
0.0131307 -0.000246952 3.35729e-18
0.0147969 -0.000246837 6.05537e-18
0.0164631 -0.000246806 7.43068e-18
0.0181292 -0.00024681 7.31132e-18
0.0197954 -0.000246845 5.24805e-18
0.0214617 -0.00024693 3.94711e-18
0.0231284 -0.000247099 9.8815e-20
0.024796 -0.000247325 -2.32625e-18
0.0264653 -0.000247294 -2.87642e-18
0.0281359 -0.000245136 -3.82843e-18
0.0298015 -0.00023645 -3.15369e-18
0.0314484 -0.000220838 -2.47055e-18
0.033 -0.000210664 -8.80205e-20
0 0 0
0.00146086 -0.000317286 -4.99158e-18
0.00311285 -0.000463852 -9.31438e-18
0.00478313 -0.000494552 -1.17171e-17
0.00645784 -0.000499095 -1.09199e-17
0.00812888 -0.000497184 -7.95845e-18
0.00979729 -0.000495321 -3.69884e-18
0.0114643 -0.000494276 7.82856e-19
0.0131307 -0.000493818 4.1499e-18
0.0147969 -0.000493651 6.34381e-18
0.016463 -0.000493605 7.27738e-18
0.0181292 -0.000493612 6.31862e-18
0.0197953 -0.000493663 4.32736e-18
0.0214616 -0.000493789 2.65993e-18
0.023128 -0.000494037 -1.4096e-18
0.0247947 -0.000494387 -2.55915e-18
0.0264619 -0.000494291 -2.14438e-18
0.0281292 -0.000491837 -1.80633e-18
0.0297957 -0.000477403 -3.54036e-19
0.0314473 -0.000440334 3.25581e-20
0.033 -0.000414053 2.30628e-21
0 0 0
0.00160016 -0.000594716 -1.65286e-18
0.00317537 -0.0007064 -2.70818e-18
0.00480639 -0.000740876 -3.66697e-18
0.00646544 -0.000744963 -3.4926e-18
0.00813078 -0.000743623 -3.07509e-18
0.00979753 -0.000741966 -2.14174e-18
0.0114642 -0.000741024 4.03042e-19
0.0131306 -0.000740602 1.55424e-18
0.0147968 -0.000740446 3.22762e-18
0.016463 -0.000740402 3.47968e-18
0.0181292 -0.000740408 3.34337e-18
0.0197954 -0.000740454 2.17616e-18
0.0214616 -0.000740569 2.36794e-18
0.0231278 -0.000740793 9.47954e-19
0.0247939 -0.000741073 2.21543e-19
0.0264595 -0.000740978 3.86541e-19
0.0281222 -0.000738061 -3.95753e-19
0.0297769 -0.000727076 -1.16235e-18
0.0314268 -0.000660568 -4.901e-19
0.033 -0.000604975 -5.99395e-19
0 0 0
0.00160571 0.000588378 -0.000139159
0.00318782 0.00069965 -0.000219637
0.00481853 0.000737797 -0.0002461
0.00647133 0.000743596 -0.000249889
0.00813325 0.000743211 -0.000249129
0.00979837 0.000741862 -0.000247967
0.0114644 0.000741014 -0.000247278
0.0131306 0.00074061 -0.000246962
0.0147968 0.000740453 -0.000246842
0.016463 0.000740407 -0.000246808
0.0181292 0.000740411 -0.000246812
0.0197953 0.000740455 -0.000246847