<?xml version="1.0"?>
<VTKFile type="UnstructuredGrid" version="0.1" byte_order="LittleEndian">
<UnstructuredGrid>
<Piece NumberOfPoints="1029" NumberOfCells="720">
<Points>
<DataArray type="Float32" NumberOfComponents="3" format="ascii">
0 0 0
0.005 0 0
0.01 0 0
0.015 0 0
0.02 0 0
0.025 0 0
0.03 0 0
0.035 0 0
0.04 0 0
0.045 0 0
0.05 0 0
0.055 0 0
0.06 0 0
0.065 0 0
0.07 0 0
0.075 0 0
0.08 0 0
0.085 0 0
0.09 0 0
0.095 0 0
0.1 0 0
0 0.005 0
0.005 0.005 0
0.01 0.005 0
0.015 0.005 0
0.02 0.005 0
0.025 0.005 0
0.03 0.005 0
0.035 0.005 0
0.04 0.005 0
0.045 0.005 0
0.05 0.005 0
0.055 0.005 0
0.06 0.005 0
0.065 0.005 0
0.07 0.005 0
0.075 0.005 0
0.08 0.005 0
0.085 0.005 0
0.09 0.005 0
0.095 0.005 0
0.1 0.005 0
0 0.01 0
0.005 0.01 0
0.01 0.01 0
0.015 0.01 0
0.02 0.01 0
0.025 0.01 0
0.03 0.01 0
0.035 0.01 0
0.04 0.01 0
0.045 0.01 0
0.05 0.01 0
0.055 0.01 0
0.06 0.01 0
0.065 0.01 0
0.07 0.01 0
0.075 0.01 0
0.08 0.01 0
0.085 0.01 0
0.09 0.01 0
0.095 0.01 0
0.1 0.01 0
0 0.015 0
0.005 0.015 0
0.01 0.015 0
0.015 0.015 0
0.02 0.015 0
0.025 0.015 0
0.03 0.015 0
0.035 0.015 0
0.04 0.015 0
0.045 0.015 0
0.05 0.015 0
0.055 0.015 0
0.06 0.015 0
0.065 0.015 0
0.07 0.015 0
0.075 0.015 0
0.08 0.015 0
0.085 0.015 0
0.09 0.015 0
0.095 0.015 0
0.1 0.015 0
0 0.02 0
0.005 0.02 0
0.01 0.02 0
0.015 0.02 0
0.02 0.02 0
0.025 0.02 0
0.03 0.02 0
0.035 0.02 0
0.04 0.02 0
0.045 0.02 0
0.05 0.02 0
0.055 0.02 0
0.06 0.02 0
0.065 0.02 0
0.07 0.02 0
0.075 0.02 0
0.08 0.02 0
0.085 0.02 0
0.09 0.02 0
0.095 0.02 0
0.1 0.02 0
0 0.025 0
0.005 0.025 0
0.01 0.025 0
0.015 0.025 0
0.02 0.025 0
0.025 0.025 0
0.03 0.025 0
0.035 0.025 0
0.04 0.025 0
0.045 0.025 0
0.05 0.025 0
0.055 0.025 0
0.06 0.025 0
0.065 0.025 0
0.07 0.025 0
0.075 0.025 0
0.08 0.025 0
0.085 0.025 0
0.09 0.025 0
0.095 0.025 0
0.1 0.025 0
0 0.03 0
0.005 0.03 0
0.01 0.03 0
0.015 0.03 0
0.02 0.03 0
0.025 0.03 0
0.03 0.03 0
0.035 0.03 0
0.04 0.03 0
0.045 0.03 0
0.05 0.03 0
0.055 0.03 0
0.06 0.03 0
0.065 0.03 0
0.07 0.03 0
0.075 0.03 0
0.08 0.03 0
0.085 0.03 0
0.09 0.03 0
0.095 0.03 0
0.1 0.03 0
0 0 0.005
0.005 0 0.005
0.01 0 0.005
0.015 0 0.005
0.02 0 0.005
0.025 0 0.005
0.03 0 0.005
0.035 0 0.005
0.04 0 0.005
0.045 0 0.005
0.05 0 0.005
0.055 0 0.005
0.06 0 0.005
0.065 0 0.005
0.07 0 0.005
0.075 0 0.005
0.08 0 0.005
0.085 0 0.005
0.09 0 0.005
0.095 0 0.005
0.1 0 0.005
0 0.005 0.005
0.005 0.005 0.005
0.01 0.005 0.005
0.015 0.005 0.005
0.02 0.005 0.005
0.025 0.005 0.005
0.03 0.005 0.005
0.035 0.005 0.005
0.04 0.005 0.005
0.045 0.005 0.005
0.05 0.005 0.005
0.055 0.005 0.005
0.06 0.005 0.005
0.065 0.005 0.005
0.07 0.005 0.005
0.075 0.005 0.005
0.08 0.005 0.005
0.085 0.005 0.005
0.09 0.005 0.005
0.095 0.005 0.005
0.1 0.005 0.005
0 0.01 0.005
0.005 0.01 0.005
0.01 0.01 0.005
0.015 0.01 0.005
0.02 0.01 0.005
0.025 0.01 0.005
0.03 0.01 0.005
0.035 0.01 0.005
0.04 0.01 0.005
0.045 0.01 0.005
0.05 0.01 0.005
0.055 0.01 0.005
0.06 0.01 0.005
0.065 0.01 0.005
0.07 0.01 0.005
0.075 0.01 0.005
0.08 0.01 0.005
0.085 0.01 0.005
0.09 0.01 0.005
0.095 0.01 0.005
0.1 0.01 0.005
0 0.015 0.005
0.005 0.015 0.005
0.01 0.015 0.005
0.015 0.015 0.005
0.02 0.015 0.005
0.025 0.015 0.005
0.03 0.015 0.005
0.035 0.015 0.005
0.04 0.015 0.005
0.045 0.015 0.005
0.05 0.015 0.005
0.055 0.015 0.005
0.06 0.015 0.005
0.065 0.015 0.005
0.07 0.015 0.005
0.075 0.015 0.005
0.08 0.015 0.005
0.085 0.015 0.005
0.09 0.015 0.005
0.095 0.015 0.005
0.1 0.015 0.005
0 0.02 0.005
0.005 0.02 0.005
0.01 0.02 0.005
0.015 0.02 0.005
0.02 0.02 0.005
0.025 0.02 0.005
0.03 0.02 0.005
0.035 0.02 0.005
0.04 0.02 0.005
0.045 0.02 0.005
0.05 0.02 0.005
0.055 0.02 0.005
0.06 0.02 0.005
0.065 0.02 0.005
0.07 0.02 0.005
0.075 0.02 0.005
0.08 0.02 0.005
0.085 0.02 0.005
0.09 0.02 0.005
0.095 0.02 0.005
0.1 0.02 0.005
0 0.025 0.005
0.005 0.025 0.005
0.01 0.025 0.005
0.015 0.025 0.005
0.02 0.025 0.005
0.025 0.025 0.005
0.03 0.025 0.005
0.035 0.025 0.005
0.04 0.025 0.005
0.045 0.025 0.005
0.05 0.025 0.005
0.055 0.025 0.005
0.06 0.025 0.005
0.065 0.025 0.005
0.07 0.025 0.005
0.075 0.025 0.005
0.08 0.025 0.005
0.085 0.025 0.005
0.09 0.025 0.005
0.095 0.025 0.005
0.1 0.025 0.005
0 0.03 0.005
0.005 0.03 0.005
0.01 0.03 0.005
0.015 0.03 0.005
0.02 0.03 0.005
0.025 0.03 0.005
0.03 0.03 0.005
0.035 0.03 0.005
0.04 0.03 0.005
0.045 0.03 0.005
0.05 0.03 0.005
0.055 0.03 0.005
0.06 0.03 0.005
0.065 0.03 0.005
0.07 0.03 0.005
0.075 0.03 0.005
0.08 0.03 0.005
0.085 0.03 0.005
0.09 0.03 0.005
0.095 0.03 0.005
0.1 0.03 0.005
0 0 0.01
0.005 0 0.01
0.01 0 0.01
0.015 0 0.01
0.02 0 0.01
0.025 0 0.01
0.03 0 0.01
0.035 0 0.01
0.04 0 0.01
0.045 0 0.01
0.05 0 0.01
0.055 0 0.01
0.06 0 0.01
0.065 0 0.01
0.07 0 0.01
0.075 0 0.01
0.08 0 0.01
0.085 0 0.01
0.09 0 0.01
0.095 0 0.01
0.1 0 0.01
0 0.005 0.01
0.005 0.005 0.01
0.01 0.005 0.01
0.015 0.005 0.01
0.02 0.005 0.01
0.025 0.005 0.01
0.03 0.005 0.01
0.035 0.005 0.01
0.04 0.005 0.01
0.045 0.005 0.01
0.05 0.005 0.01
0.055 0.005 0.01
0.06 0.005 0.01
0.065 0.005 0.01
0.07 0.005 0.01
0.075 0.005 0.01
0.08 0.005 0.01
0.085 0.005 0.01
0.09 0.005 0.01
0.095 0.005 0.01
0.1 0.005 0.01
0 0.01 0.01
0.005 0.01 0.01
0.01 0.01 0.01
0.015 0.01 0.01
0.02 0.01 0.01
0.025 0.01 0.01
0.03 0.01 0.01
0.035 0.01 0.01
0.04 0.01 0.01
0.045 0.01 0.01
0.05 0.01 0.01
0.055 0.01 0.01
0.06 0.01 0.01
0.065 0.01 0.01
0.07 0.01 0.01
0.075 0.01 0.01
0.08 0.01 0.01
0.085 0.01 0.01
0.09 0.01 0.01
0.095 0.01 0.01
0.1 0.01 0.01
0 0.015 0.01
0.005 0.015 0.01
0.01 0.015 0.01
0.015 0.015 0.01
0.02 0.015 0.01
0.025 0.015 0.01
0.03 0.015 0.01
0.035 0.015 0.01
0.04 0.015 0.01
0.045 0.015 0.01
0.05 0.015 0.01
0.055 0.015 0.01
0.06 0.015 0.01
0.065 0.015 0.01
0.07 0.015 0.01
0.075 0.015 0.01
0.08 0.015 0.01
0.085 0.015 0.01
0.09 0.015 0.01
0.095 0.015 0.01
0.1 0.015 0.01
0 0.02 0.01
0.005 0.02 0.01
0.01 0.02 0.01
0.015 0.02 0.01
0.02 0.02 0.01
0.025 0.02 0.01
0.03 0.02 0.01
0.035 0.02 0.01
0.04 0.02 0.01
0.045 0.02 0.01
0.05 0.02 0.01
0.055 0.02 0.01
0.06 0.02 0.01
0.065 0.02 0.01
0.07 0.02 0.01
0.075 0.02 0.01
0.08 0.02 0.01
0.085 0.02 0.01
0.09 0.02 0.01
0.095 0.02 0.01
0.1 0.02 0.01
0 0.025 0.01
0.005 0.025 0.01
0.01 0.025 0.01
0.015 0.025 0.01
0.02 0.025 0.01
0.025 0.025 0.01
0.03 0.025 0.01
0.035 0.025 0.01
0.04 0.025 0.01
0.045 0.025 0.01
0.05 0.025 0.01
0.055 0.025 0.01
0.06 0.025 0.01
0.065 0.025 0.01
0.07 0.025 0.01
0.075 0.025 0.01
0.08 0.025 0.01
0.085 0.025 0.01
0.09 0.025 0.01
0.095 0.025 0.01
0.1 0.025 0.01
0 0.03 0.01
0.005 0.03 0.01
0.01 0.03 0.01
0.015 0.03 0.01
0.02 0.03 0.01
0.025 0.03 0.01
0.03 0.03 0.01
0.035 0.03 0.01
0.04 0.03 0.01
0.045 0.03 0.01
0.05 0.03 0.01
0.055 0.03 0.01
0.06 0.03 0.01
0.065 0.03 0.01
0.07 0.03 0.01
0.075 0.03 0.01
0.08 0.03 0.01
0.085 0.03 0.01
0.09 0.03 0.01
0.095 0.03 0.01
0.1 0.03 0.01
0 0 0.015
0.005 0 0.015
0.01 0 0.015
0.015 0 0.015
0.02 0 0.015
0.025 0 0.015
0.03 0 0.015
0.035 0 0.015
0.04 0 0.015
0.045 0 0.015
0.05 0 0.015
0.055 0 0.015
0.06 0 0.015
0.065 0 0.015
0.07 0 0.015
0.075 0 0.015
0.08 0 0.015
0.085 0 0.015
0.09 0 0.015
0.095 0 0.015
0.1 0 0.015
0 0.005 0.015
0.005 0.005 0.015
0.01 0.005 0.015
0.015 0.005 0.015
0.02 0.005 0.015
0.025 0.005 0.015
0.03 0.005 0.015
0.035 0.005 0.015
0.04 0.005 0.015
0.045 0.005 0.015
0.05 0.005 0.015
0.055 0.005 0.015
0.06 0.005 0.015
0.065 0.005 0.015
0.07 0.005 0.015
0.075 0.005 0.015
0.08 0.005 0.015
0.085 0.005 0.015
0.09 0.005 0.015
0.095 0.005 0.015
0.1 0.005 0.015
0 0.01 0.015
0.005 0.01 0.015
0.01 0.01 0.015
0.015 0.01 0.015
0.02 0.01 0.015
0.025 0.01 0.015
0.03 0.01 0.015
0.035 0.01 0.015
0.04 0.01 0.015
0.045 0.01 0.015
0.05 0.01 0.015
0.055 0.01 0.015
0.06 0.01 0.015
0.065 0.01 0.015
0.07 0.01 0.015
0.075 0.01 0.015
0.08 0.01 0.015
0.085 0.01 0.015
0.09 0.01 0.015
0.095 0.01 0.015
0.1 0.01 0.015
0 0.015 0.015
0.005 0.015 0.015
0.01 0.015 0.015
0.015 0.015 0.015
0.02 0.015 0.015
0.025 0.015 0.015
0.03 0.015 0.015
0.035 0.015 0.015
0.04 0.015 0.015
0.045 0.015 0.015
0.05 0.015 0.015
0.055 0.015 0.015
0.06 0.015 0.015
0.065 0.015 0.015
0.07 0.015 0.015
0.075 0.015 0.015
0.08 0.015 0.015
0.085 0.015 0.015
0.09 0.015 0.015
0.095 0.015 0.015
0.1 0.015 0.015
0 0.02 0.015
0.005 0.02 0.015
0.01 0.02 0.015
0.015 0.02 0.015
0.02 0.02 0.015
0.025 0.02 0.015
0.03 0.02 0.015
0.035 0.02 0.015
0.04 0.02 0.015
0.045 0.02 0.015
0.05 0.02 0.015
0.055 0.02 0.015
0.06 0.02 0.015
0.065 0.02 0.015
0.07 0.02 0.015
0.075 0.02 0.015
0.08 0.02 0.015
0.085 0.02 0.015
0.09 0.02 0.015
0.095 0.02 0.015
0.1 0.02 0.015
0 0.025 0.015
0.005 0.025 0.015
0.01 0.025 0.015
0.015 0.025 0.015
0.02 0.025 0.015
0.025 0.025 0.015
0.03 0.025 0.015
0.035 0.025 0.015
0.04 0.025 0.015
0.045 0.025 0.015
0.05 0.025 0.015
0.055 0.025 0.015
0.06 0.025 0.015
0.065 0.025 0.015
0.07 0.025 0.015
0.075 0.025 0.015
0.08 0.025 0.015
0.085 0.025 0.015
0.09 0.025 0.015
0.095 0.025 0.015
0.1 0.025 0.015
0 0.03 0.015
0.005 0.03 0.015
0.01 0.03 0.015
0.015 0.03 0.015
0.02 0.03 0.015
0.025 0.03 0.015
0.03 0.03 0.015
0.035 0.03 0.015
0.04 0.03 0.015
0.045 0.03 0.015
0.05 0.03 0.015
0.055 0.03 0.015
0.06 0.03 0.015
0.065 0.03 0.015
0.07 0.03 0.015
0.075 0.03 0.015
0.08 0.03 0.015
0.085 0.03 0.015
0.09 0.03 0.015
0.095 0.03 0.015
0.1 0.03 0.015
0 0 0.02
0.005 0 0.02
0.01 0 0.02
0.015 0 0.02
0.02 0 0.02
0.025 0 0.02
0.03 0 0.02
0.035 0 0.02
0.04 0 0.02
0.045 0 0.02
0.05 0 0.02
0.055 0 0.02
0.06 0 0.02
0.065 0 0.02
0.07 0 0.02
0.075 0 0.02
0.08 0 0.02
0.085 0 0.02
0.09 0 0.02
0.095 0 0.02
0.1 0 0.02
0 0.005 0.02
0.005 0.005 0.02
0.01 0.005 0.02
0.015 0.005 0.02
0.02 0.005 0.02
0.025 0.005 0.02
0.03 0.005 0.02
0.035 0.005 0.02
0.04 0.005 0.02
0.045 0.005 0.02
0.05 0.005 0.02
0.055 0.005 0.02
0.06 0.005 0.02
0.065 0.005 0.02
0.07 0.005 0.02
0.075 0.005 0.02
0.08 0.005 0.02
0.085 0.005 0.02
0.09 0.005 0.02
0.095 0.005 0.02
0.1 0.005 0.02
0 0.01 0.02
0.005 0.01 0.02
0.01 0.01 0.02
0.015 0.01 0.02
0.02 0.01 0.02
0.025 0.01 0.02
0.03 0.01 0.02
0.035 0.01 0.02
0.04 0.01 0.02
0.045 0.01 0.02
0.05 0.01 0.02
0.055 0.01 0.02
0.06 0.01 0.02
0.065 0.01 0.02
0.07 0.01 0.02
0.075 0.01 0.02
0.08 0.01 0.02
0.085 0.01 0.02
0.09 0.01 0.02
0.095 0.01 0.02
[...]
<PointData Vectors="Displacement">
<DataArray type="Float32" Name="Displacement" NumberOfComponents="3" format="ascii">
0 0 0
0.00126117 0.000375657 0.000375657
0.0023404 0.000461376 0.000461376
0.00343628 0.000500168 0.000500168
0.00456283 0.000510098 0.000510098
0.0057089 0.000511984 0.000511984
0.00686502 0.000511526 0.000511526
0.00802539 0.000510892 0.000510892
0.00918728 0.000510486 0.000510486
0.0103496 0.000510292 0.000510292
0.011512 0.000510226 0.000510226
0.0126743 0.000510238 0.000510238
0.0138366 0.000510318 0.000510318
0.0149986 0.000510472 0.000510472
0.0161598 0.000510655 0.000510655
0.0173191 0.000510538 0.000510538
0.0184743 0.000509119 0.000509119
0.0196225 0.000502872 0.000502872
0.0207618 0.000487012 0.000487012
0.0219135 0.000421783 0.000421783
0.023 0.000372023 0.000372023
0 0 0
0.00116269 0.000200514 0.000378305
0.00228951 0.000306035 0.000467912
0.0034137 0.000335438 0.00050214
0.00455431 0.000342865 0.000510974
0.00570626 0.000342898 0.000512217
0.00686448 0.000341767 0.00051157
0.00802543 0.000340886 0.000510882
0.00918739 0.000340418 0.000510472
0.0103497 0.000340216 0.000510282
0.011512 0.000340154 0.00051022
0.0126743 0.000340171 0.000510233
0.0138366 0.000340262 0.000510313
0.0149986 0.000340457 0.000510475
0.0161602 0.00034076 0.000510689
0.0173205 0.000340985 0.000510684
0.0184784 0.000340146 0.000509507
0.0196323 0.000335612 0.000504026
0.0207837 0.00031793 0.000489106
0.0219365 0.000279946 0.000419623
0.023 0.000255353 0.000364802
0 0 0
0.00114769 9.10103e-05 0.000389786
0.00225456 0.000147746 0.000476442
0.00339138 0.000168827 0.000507179
0.00454306 0.000172607 0.000512963
0.00570164 0.000172223 0.000512906
0.00686288 0.000171249 0.000511739
0.00802501 0.000170591 0.000510895
0.00918734 0.000170258 0.000510452
0.0103497 0.00017012 0.000510264
0.011512 0.000170079 0.000510207
0.0126743 0.000170092 0.000510223
0.0138366 0.000170156 0.000510309
0.0149989 0.000170299 0.000510496
0.016161 0.00017054 0.000510802
0.0173227 0.000170774 0.000511043
0.018483 0.00017044 0.000510471
0.0196404 0.000167239 0.000505891
0.0207904 0.000156829 0.000491285
0.0219384 0.000140106 0.000416413
0.023 0.000130043 0.000355537
0 0 0
0.00114384 -4.44467e-19 0.000393145
0.00224603 -1.2534e-18 0.000480543
0.00338237 -1.77194e-18 0.000509324
0.00453825 -1.69339e-18 0.000513998
0.00569947 -1.32602e-18 0.000513262
0.00686208 -1.00866e-18 0.000511841
0.00802477 -7.04786e-19 0.000510909
0.0091873 -5.37554e-19 0.000510445
0.0103497 -7.00651e-19 0.000510256
0.011512 -4.21089e-19 0.000510201
0.0126743 -2.82214e-19 0.000510219
0.0138367 -6.48677e-19 0.000510309
0.014999 2.19764e-19 0.00051051
0.0161614 -2.36026e-19 0.000510862
0.0173236 3.24471e-19 0.000511233
0.0184849 1.73634e-18 0.000510908
0.0196427 2.03713e-18 0.0005067
0.0207916 3.39279e-18 0.000491758
0.0219382 3.59512e-18 0.000415006
0.023 2.8861e-18 0.000352506
0 0 0
0.00114769 -9.10103e-05 0.000389786
0.00225456 -0.000147746 0.000476442
0.00339138 -0.000168827 0.000507179
0.00454306 -0.000172607 0.000512963
0.00570164 -0.000172223 0.000512906
0.00686288 -0.000171249 0.000511739
0.00802501 -0.000170591 0.000510895
0.00918734 -0.000170258 0.000510452
0.0103497 -0.00017012 0.000510264
0.011512 -0.000170079 0.000510207
0.0126743 -0.000170092 0.000510223
0.0138366 -0.000170156 0.000510309
0.0149989 -0.000170299 0.000510496
0.016161 -0.00017054 0.000510802
0.0173227 -0.000170774 0.000511043
0.018483 -0.00017044 0.000510471
0.0196404 -0.000167239 0.000505891
0.0207904 -0.000156829 0.000491285
0.0219384 -0.000140106 0.000416413
0.023 -0.000130043 0.000355537
0 0 0
0.00116269 -0.000200514 0.000378305
0.00228951 -0.000306035 0.000467912
0.0034137 -0.000335438 0.00050214
0.00455431 -0.000342865 0.000510974
0.00570626 -0.000342898 0.000512217
0.00686448 -0.000341767 0.00051157
0.00802543 -0.000340886 0.000510882
0.00918739 -0.000340418 0.000510472
0.0103497 -0.000340216 0.000510282
0.011512 -0.000340154 0.00051022
0.0126743 -0.000340171 0.000510233
0.0138366 -0.000340262 0.000510313
0.0149986 -0.000340457 0.000510475
0.0161602 -0.00034076 0.000510689
0.0173205 -0.000340985 0.000510684
0.0184784 -0.000340146 0.000509507
0.0196323 -0.000335612 0.000504026
0.0207837 -0.00031793 0.000489106
0.0219365 -0.000279946 0.000419623
0.023 -0.000255353 0.000364802
0 0 0
0.00126117 -0.000375657 0.000375657
0.0023404 -0.000461376 0.000461376
0.00343628 -0.000500168 0.000500168
0.00456283 -0.000510098 0.000510098
0.0057089 -0.000511984 0.000511984
0.00686502 -0.000511526 0.000511526
0.00802539 -0.000510892 0.000510892
0.00918728 -0.000510486 0.000510486
0.0103496 -0.000510292 0.000510292
0.011512 -0.000510226 0.000510226
0.0126743 -0.000510238 0.000510238
0.0138366 -0.000510318 0.000510318
0.0149986 -0.000510472 0.000510472
0.0161598 -0.000510655 0.000510655
0.0173191 -0.000510538 0.000510538
0.0184743 -0.000509119 0.000509119
0.0196225 -0.000502872 0.000502872
0.0207618 -0.000487012 0.000487012
0.0219135 -0.000421783 0.000421783
0.023 -0.000372023 0.000372023
0 0 0
0.00116269 0.000378305 0.000200514
0.00228951 0.000467912 0.000306035
0.0034137 0.00050214 0.000335438
0.00455431 0.000510974 0.000342865
0.00570626 0.000512217 0.000342898
0.00686448 0.00051157 0.000341767
0.00802543 0.000510882 0.000340886
0.00918739 0.000510472 0.000340418
0.0103497 0.000510282 0.000340216
0.011512 0.00051022 0.000340154
0.0126743 0.000510233 0.000340171
0.0138366 0.000510313 0.000340262
0.0149986 0.000510475 0.000340457
0.0161602 0.000510689 0.00034076
0.0173205 0.000510684 0.000340985
0.0184784 0.000509507 0.000340146
0.0196323 0.000504026 0.000335612
0.0207837 0.000489106 0.00031793
0.0219365 0.000419623 0.000279946
0.023 0.000364802 0.000255353
0 0 0
0.00106069 0.000199457 0.000199457
0.00223929 0.000305498 0.000305498
0.00339262 0.000335127 0.000335127
0.00454644 0.000342637 0.000342637
0.00570393 0.000342809 0.000342809
0.00686405 0.00034173 0.00034173
0.0080255 0.000340876 0.000340876
0.00918752 0.000340416 0.000340416
0.0103497 0.000340216 0.000340216
0.011512 0.000340155 0.000340155
0.0126743 0.000340171 0.000340171
0.0138365 0.00034026 0.00034026
0.0149987 0.00034045 0.00034045
0.0161605 0.000340743 0.000340743
0.0173218 0.000340946 0.000340946
0.0184823 0.000340079 0.000340079
0.0196419 0.000335588 0.000335588
0.0208066 0.000317919 0.000317919
0.0219612 0.000279742 0.000279742
0.023 0.00025464 0.00025464
0 0 0
0.00104514 8.8805e-05 0.000204351
0.00220477 0.00014575 0.00031081
0.00337116 0.000167656 0.000338078
0.00453593 0.000172059 0.000343877
0.00569965 0.000172008 0.000343215
0.00686259 0.000171183 0.000341829
0.00802513 0.000170577 0.00034088
0.00918748 0.000170259 0.000340402
0.0103498 0.000170124 0.000340205
0.011512 0.000170082 0.000340146
0.0126743 0.000170094 0.000340165
0.0138366 0.000170155 0.000340257
0.0149989 0.000170288 0.000340462
0.0161613 0.000170503 0.00034081
0.0173238 0.000170672 0.000341172
0.0184866 0.000170219 0.000340667
0.01965 0.000166868 0.000336734
0.0208141 0.000156567 0.00031878
0.021964 0.000140551 0.000277603
0.023 0.000130921 0.000249612
0 0 0
0.00104077 -3.31699e-18 0.000206651
0.00219642 -6.23287e-18 0.000313296
0.0033626 -8.25719e-18 0.000339631
0.00453142 -9.10793e-18 0.000344569
0.00569765 -9.02473e-18 0.000343463
0.00686185 -8.58857e-18 0.000341894
0.0080249 -8.2536e-18 0.000340888
0.00918744 -8.15847e-18 0.000340397
0.0103498 -8.65632e-18 0.000340199
0.011512 -8.23993e-18 0.000340142
0.0126743 -8.21316e-18 0.000340162
0.0138366 -7.63551e-18 0.000340257
0.014999 -6.5238e-18 0.000340471
0.0161617 -5.34249e-18 0.000340852
0.0173247 -3.34753e-18 0.000341301
0.0184885 -4.34344e-19 0.000340981
0.0196524 3.21932e-18 0.00033725
0.0208156 5.39373e-18 0.000319007
0.0219642 7.4011e-18 0.000276623
0.023 4.01652e-18 0.000247627
0 0 0
0.00104514 -8.8805e-05 0.000204351
0.00220477 -0.00014575 0.00031081
0.00337116 -0.000167656 0.000338078
0.00453593 -0.000172059 0.000343877
0.00569965 -0.000172008 0.000343215
0.00686259 -0.000171183 0.000341829
0.00802513 -0.000170577 0.00034088
0.00918748 -0.000170259 0.000340402
0.0103498 -0.000170124 0.000340205
0.011512 -0.000170082 0.000340146
0.0126743 -0.000170094 0.000340165
0.0138366 -0.000170155 0.000340257
0.0149989 -0.000170288 0.000340462
0.0161613 -0.000170503 0.00034081
0.0173238 -0.000170672 0.000341172
0.0184866 -0.000170219 0.000340667
0.01965 -0.000166868 0.000336734
0.0208141 -0.000156567 0.00031878
0.021964 -0.000140551 0.000277603
0.023 -0.000130921 0.000249612
0 0 0
0.00106069 -0.000199457 0.000199457
0.00223929 -0.000305498 0.000305498
0.00339262 -0.000335127 0.000335127
0.00454644 -0.000342637 0.000342637
0.00570393 -0.000342809 0.000342809
0.00686405 -0.00034173 0.00034173
0.0080255 -0.000340876 0.000340876
0.00918752 -0.000340416 0.000340416
0.0103497 -0.000340216 0.000340216
0.011512 -0.000340155 0.000340155
0.0126743 -0.000340171 0.000340171
0.0138365 -0.00034026 0.00034026
0.0149987 -0.00034045 0.00034045
0.0161605 -0.000340743 0.000340743
0.0173218 -0.000340946 0.000340946
0.0184823 -0.000340079 0.000340079
0.0196419 -0.000335588 0.000335588
0.0208066 -0.000317919 0.000317919
0.0219612 -0.000279742 0.000279742
0.023 -0.00025464 0.00025464
0 0 0
0.00116269 -0.000378305 0.000200514
0.00228951 -0.000467912 0.000306035
0.0034137 -0.00050214 0.000335438
0.00455431 -0.000510974 0.000342865
0.00570626 -0.000512217 0.000342898
0.00686448 -0.00051157 0.000341767
0.00802543 -0.000510882 0.000340886
0.00918739 -0.000510472 0.000340418
0.0103497 -0.000510282 0.000340216
0.011512 -0.00051022 0.000340154
0.0126743 -0.000510233 0.000340171
0.0138366 -0.000510313 0.000340262
0.0149986 -0.000510475 0.000340457
0.0161602 -0.000510689 0.00034076
0.0173205 -0.000510684 0.000340985
0.0184784 -0.000509507 0.000340146
0.0196323 -0.000504026 0.000335612
0.0207837 -0.000489106 0.00031793
0.0219365 -0.000419623 0.000279946
0.023 -0.000364802 0.000255353
0 0 0
0.00114769 0.000389786 9.10103e-05
0.00225456 0.000476442 0.000147746
0.00339138 0.000507179 0.000168827
0.00454306 0.000512963 0.000172607
0.00570164 0.000512906 0.000172223
0.00686288 0.000511739 0.000171249
0.00802501 0.000510895 0.000170591
0.00918734 0.000510452 0.000170258
0.0103497 0.000510264 0.00017012
0.011512 0.000510207 0.000170079
0.0126743 0.000510223 0.000170092
0.0138366 0.000510309 0.000170156
0.0149989 0.000510496 0.000170299
0.016161 0.000510802 0.00017054
0.0173227 0.000511043 0.000170774
0.018483 0.000510471 0.00017044
0.0196404 0.000505891 0.000167239
0.0207904 0.000491285 0.000156829
0.0219384 0.000416413 0.000140106
0.023 0.000355537 0.000130043
0 0 0
0.00104514 0.000204351 8.8805e-05
0.00220477 0.00031081 0.00014575
0.00337116 0.000338078 0.000167656
0.00453593 0.000343877 0.000172059
0.00569965 0.000343215 0.000172008
0.00686259 0.000341829 0.000171183
0.00802513 0.00034088 0.000170577
0.00918748 0.000340402 0.000170259
0.0103498 0.000340205 0.000170124
0.011512 0.000340146 0.000170082
0.0126743 0.000340165 0.000170094
0.0138366 0.000340257 0.000170155
0.0149989 0.000340462 0.000170288
0.0161613 0.00034081 0.000170503
0.0173238 0.000341172 0.000170672
0.0184866 0.000340667 0.000170219
0.01965 0.000336734 0.000166868
0.0208141 0.00031878 0.000156567
0.021964 0.000277603 0.000140551
0.023 0.000249612 0.000130921
0 0 0
0.0010304 9.07427e-05 9.07427e-05
0.00216954 0.00014775 0.00014775
0.00334942 0.000168929 0.000168929
0.00452542 0.000172605 0.000172605
0.00569546 0.000172188 0.000172188
0.0068612 0.000171225 0.000171225
0.00802478 0.000170578 0.000170578
0.00918745 0.000170253 0.000170253
0.0103498 0.000170118 0.000170118
0.0115121 0.000170079 0.000170079
0.0126743 0.000170091 0.000170091
0.0138366 0.000170154 0.000170154
0.0149991 0.000170293 0.000170293
0.016162 0.000170533 0.000170533
0.0173258 0.000170775 0.000170775
0.0184911 0.000170484 0.000170484
0.0196583 0.000167302 0.000167302
0.0208216 0.000156764 0.000156764
0.021966 0.000139672 0.000139672
0.023 0.000129001 0.000129001
0 0 0
0.00102628 -3.00613e-18 9.16903e-05
0.00216112 -5.50217e-18 0.000148865
0.00334065 -7.18718e-18 0.000169648
0.00452087 -7.23586e-18 0.00017294
0.00569347 -6.62227e-18 0.000172307
0.00686048 -6.28384e-18 0.000171257
0.00802457 -5.9079e-18 0.000170582
0.00918741 -5.85401e-18 0.00017025
0.0103498 -6.32478e-18 0.000170115
0.0115121 -5.98819e-18 0.000170077
0.0126743 -5.85564e-18 0.00017009
0.0138367 -5.39707e-18 0.000170154
0.0149992 -4.68397e-18 0.000170298
0.0161624 -4.07794e-18 0.000170553
0.0173267 -2.88566e-18 0.000170839
0.018493 -4.49661e-19 0.000170633
0.0196608 2.71437e-18 0.000167525
0.020823 5.32144e-18 0.000156827
0.0219659 7.14617e-18 0.000139215
0.023 3.35097e-18 0.000128101
0 0 0
0.0010304 -9.07427e-05 9.07427e-05
0.00216954 -0.00014775 0.00014775
0.00334942 -0.000168929 0.000168929
0.00452542 -0.000172605 0.000172605
0.00569546 -0.000172188 0.000172188
0.0068612 -0.000171225 0.000171225
0.00802478 -0.000170578 0.000170578
0.00918745 -0.000170253 0.000170253
0.0103498 -0.000170118 0.000170118
0.0115121 -0.000170079 0.000170079
0.0126743 -0.000170091 0.000170091
0.0138366 -0.000170154 0.000170154
0.0149991 -0.000170293 0.000170293
0.016162 -0.000170533 0.000170533
0.0173258 -0.000170775 0.000170775
0.0184911 -0.000170484 0.000170484
0.0196583 -0.000167302 0.000167302
0.0208216 -0.000156764 0.000156764
0.021966 -0.000139672 0.000139672
0.023 -0.000129001 0.000129001
0 0 0
0.00104514 -0.000204351 8.8805e-05
0.00220477 -0.00031081 0.00014575
0.00337116 -0.000338078 0.000167656
0.00453593 -0.000343877 0.000172059
0.00569965 -0.000343215 0.000172008
0.00686259 -0.000341829 0.000171183
0.00802513 -0.00034088 0.000170577
0.00918748 -0.000340402 0.000170259
0.0103498 -0.000340205 0.000170124
0.011512 -0.000340146 0.000170082
0.0126743 -0.000340165 0.000170094
0.0138366 -0.000340257 0.000170155
0.0149989 -0.000340462 0.000170288
0.0161613 -0.00034081 0.000170503
0.0173238 -0.000341172 0.000170672
0.0184866 -0.000340667 0.000170219
0.01965 -0.000336734 0.000166868
0.0208141 -0.00031878 0.000156567
0.021964 -0.000277603 0.000140551
0.023 -0.000249612 0.000130921
0 0 0
0.00114769 -0.000389786 9.10103e-05
0.00225456 -0.000476442 0.000147746
0.00339138 -0.000507179 0.000168827
0.00454306 -0.000512963 0.000172607
0.00570164 -0.000512906 0.000172223
0.00686288 -0.000511739 0.000171249
0.00802501 -0.000510895 0.000170591
0.00918734 -0.000510452 0.000170258
0.0103497 -0.000510264 0.00017012
0.011512 -0.000510207 0.000170079
0.0126743 -0.000510223 0.000170092
0.0138366 -0.000510309 0.000170156
0.0149989 -0.000510496 0.000170299
0.016161 -0.000510802 0.00017054
0.0173227 -0.000511043 0.000170774
0.018483 -0.000510471 0.00017044
0.0196404 -0.000505891 0.000167239
0.0207904 -0.000491285 0.000156829
0.0219384 -0.000416413 0.000140106
0.023 -0.000355537 0.000130043
0 0 0
0.00114384 0.000393145 -2.46087e-19
0.00224603 0.000480543 -2.771e-19
0.00338237 0.000509324 6.01934e-20
0.00453825 0.000513998 4.62708e-19
0.00569947 0.000513262 1.19413e-18
0.00686208 0.000511841 1.57602e-18
0.00802477 0.000510909 1.84411e-18
0.0091873 0.000510445 2.30322e-18
0.0103497 0.000510256 1.40407e-18
0.011512 0.000510201 2.02353e-18
0.0126743 0.000510219 1.56754e-18
0.0138367 0.000510309 1.28498e-18
0.014999 0.00051051 1.59217e-18
0.0161614 0.000510862 -3.50936e-19
0.0173236 0.000511233 2.93041e-20
0.0184849 0.000510908 1.07851e-18
0.0196427 0.0005067 9.46179e-19
0.0207916 0.000491758 9.82281e-19
0.0219382 0.000415006 4.07514e-19
0.023 0.000352506 1.10145e-18
0 0 0
0.00104077 0.000206651 2.62208e-19
0.00219642 0.000313296 1.25089e-18
0.0033626 0.000339631 3.20412e-18
0.00453142 0.000344569 5.90674e-18
0.00569765 0.000343463 8.08942e-18
0.00686185 0.000341894 9.87736e-18
0.0080249 0.000340888 1.07392e-17
0.00918744 0.000340397 1.07661e-17
0.0103498 0.000340199 1.04493e-17
0.011512 0.000340142 1.02519e-17
0.0126743 0.000340162 9.278e-18
0.0138366 0.000340257 8.05042e-18
0.014999 0.000340471 6.66097e-18
0.0161617 0.000340852 3.52821e-18
0.0173247 0.000341301 1.64385e-18
0.0184885 0.000340981 1.15733e-18
0.0196524 0.00033725 1.04633e-18
0.0208156 0.000319007 1.31102e-18
0.0219642 0.000276623 1.50727e-18
0.023 0.000247627 8.3302e-19
0 0 0
0.00102628 9.16903e-05 -5.21813e-19
0.00216112 0.000148865 -3.83846e-19
0.00334065 0.000169648 1.34794e-18
0.00452087 0.00017294 3.8664e-18
0.00569347 0.000172307 6.41463e-18
0.00686048 0.000171257 8.08256e-18
0.00802457 0.000170582 8.39154e-18
0.00918741 0.00017025 8.10928e-18
0.0103498 0.000170115 7.67874e-18
0.0115121 0.000170077 7.70132e-18
0.0126743 0.00017009 7.30308e-18
0.0138367 0.000170154 6.29186e-18
0.0149992 0.000170298 5.44789e-18
0.0161624 0.000170553 2.23889e-18
0.0173267 0.000170839 4.53963e-19
0.018493 0.000170633 6.56195e-19
0.0196608 0.000167525 9.48219e-19
0.020823 0.000156827 2.26107e-18
0.0219659 0.000139215 2.66139e-18
0.023 0.000128101 1.38146e-18
0 0 0
0.0010222 -5.91475e-19 -1.06156e-18
0.00215265 -6.25079e-19 -1.51118e-18
0.0033318 -2.82658e-19 -5.79871e-19
0.00451628 3.59524e-19 5.43672e-19
0.00569147 1.15653e-18 1.52946e-18
0.00685976 1.02457e-18 1.31699e-18
0.00802436 3.83095e-19 4.11676e-19
0.00918738 -1.50693e-19 -1.00519e-18
0.0103498 -6.48314e-19 -1.51524e-18
0.0115121 5.02709e-19 -6.56025e-19
0.0126743 1.52891e-18 6.60553e-19
0.0138367 1.91024e-18 1.41632e-18
0.0149994 2.21174e-18 2.22779e-18
0.0161628 1.50244e-18 1.01785e-19
0.0173276 7.68667e-19 -1.05432e-18
0.018495 5.49101e-19 -9.00869e-19
0.0196633 9.93607e-19 -2.74903e-19
0.0208243 1.99228e-18 8.94627e-19
0.0219657 2.66505e-18 2.01396e-18
0.023 2.35952e-18 8.85065e-19
0 0 0
0.00102628 -9.16903e-05 -1.30382e-18
0.00216112 -0.000148865 -2.15761e-18
0.00334065 -0.000169648 -2.58575e-18
0.00452087 -0.00017294 -2.92098e-18
0.00569347 -0.000172307 -3.82722e-18
0.00686048 -0.000171257 -5.74777e-18
0.00802457 -0.000170582 -8.29217e-18
0.00918741 -0.00017025 -9.78283e-18
0.0103498 -0.000170115 -1.02688e-17
0.0115121 -0.000170077 -8.88342e-18
0.0126743 -0.00017009 -6.29057e-18
0.0138367 -0.000170154 -3.93768e-18
0.0149992 -0.000170298 -1.62661e-18
0.0161624 -0.000170553 -2.2201e-18
0.0173267 -0.000170839 -2.15531e-18
0.018493 -0.000170633 -1.4973e-18
0.0196608 -0.000167525 -1.21756e-18
0.020823 -0.000156827 1.25586e-19
0.0219659 -0.000139215 8.06258e-19
0.023 -0.000128101 1.05456e-18
0 0 0
0.00104077 -0.000206651 -1.48265e-18
0.00219642 -0.000313296 -2.80165e-18
0.0033626 -0.000339631 -4.03548e-18
0.00453142 -0.000344569 -5.06737e-18
0.00569765 -0.000343463 -6.75904e-18
0.00686185 -0.000341894 -8.60167e-18
0.0080249 -0.000340888 -1.04421e-17
0.00918744 -0.000340397 -1.19866e-17
0.0103498 -0.000340199 -1.20497e-17
0.011512 -0.000340142 -1.09216e-17
0.0126743 -0.000340162 -8.96829e-18
0.0138366 -0.000340257 -6.4622e-18
0.014999 -0.000340471 -4.11485e-18
0.0161617 -0.000340852 -3.96347e-18
0.0173247 -0.000341301 -2.77606e-18
0.0184885 -0.000340981 -1.39412e-18
0.0196524 -0.00033725 -9.54212e-19
0.0208156 -0.000319007 4.46424e-19
0.0219642 -0.000276623 1.24724e-18
0.023 -0.000247627 1.11663e-18
0 0 0
0.00114384 -0.000393145 -4.56578e-19
0.00224603 -0.000480543 -1.36227e-19
0.00338237 -0.000509324 -1.6506e-19
0.00453825 -0.000513998 -4.33739e-19
0.00569947 -0.000513262 -9.07963e-19
0.00686208 -0.000511841 -1.70993e-18
0.00802477 -0.000510909 -1.75617e-18
0.0091873 -0.000510445 -2.2132e-18
0.0103497 -0.000510256 -1.79878e-18
0.011512 -0.000510201 -2.05509e-18
0.0126743 -0.000510219 -1.52891e-18
0.0138367 -0.000510309 -1.36973e-18
0.014999 -0.00051051 -8.11205e-20
0.0161614 -0.000510862 -5.85311e-19
0.0173236 -0.000511233 -5.96569e-20
0.0184849 -0.000510908 1.06049e-19
0.0196427 -0.0005067 2.17802e-19
0.0207916 -0.000491758 2.74033e-19
0.0219382 -0.000415006 4.93516e-19
0.023 -0.000352506 -7.25853e-20
0 0 0
0.00114769 0.000389786 -9.10103e-05
0.00225456 0.000476442 -0.000147746
0.00339138 0.000507179 -0.000168827
0.00454306 0.000512963 -0.000172607
0.00570164 0.000512906 -0.000172223
0.00686288 0.000511739 -0.000171249
0.00802501 0.000510895 -0.000170591
0.00918734 0.000510452 -0.000170258
0.0103497 0.000510264 -0.00017012
0.011512 0.000510207 -0.000170079
0.0126743 0.000510223 -0.000170092