<?xml version="1.0"?>
<VTKFile type="UnstructuredGrid" version="0.1" byte_order="LittleEndian">
<UnstructuredGrid>
<Piece NumberOfPoints="1029" NumberOfCells="720">
<Points>
<DataArray type="Float32" NumberOfComponents="3" format="ascii">
0 0 0
0.005 0 0
0.01 0 0
0.015 0 0
0.02 0 0
0.025 0 0
0.03 0 0
0.035 0 0
0.04 0 0
0.045 0 0
0.05 0 0
0.055 0 0
0.06 0 0
0.065 0 0
0.07 0 0
0.075 0 0
0.08 0 0
0.085 0 0
0.09 0 0
0.095 0 0
0.1 0 0
0 0.005 0
0.005 0.005 0
0.01 0.005 0
0.015 0.005 0
0.02 0.005 0
0.025 0.005 0
0.03 0.005 0
0.035 0.005 0
0.04 0.005 0
0.045 0.005 0
0.05 0.005 0
0.055 0.005 0
0.06 0.005 0
0.065 0.005 0
0.07 0.005 0
0.075 0.005 0
0.08 0.005 0
0.085 0.005 0
0.09 0.005 0
0.095 0.005 0
0.1 0.005 0
0 0.01 0
0.005 0.01 0
0.01 0.01 0
0.015 0.01 0
0.02 0.01 0
0.025 0.01 0
0.03 0.01 0
0.035 0.01 0
0.04 0.01 0
0.045 0.01 0
0.05 0.01 0
0.055 0.01 0
0.06 0.01 0
0.065 0.01 0
0.07 0.01 0
0.075 0.01 0
0.08 0.01 0
0.085 0.01 0
0.09 0.01 0
0.095 0.01 0
0.1 0.01 0
0 0.015 0
0.005 0.015 0
0.01 0.015 0
0.015 0.015 0
0.02 0.015 0
0.025 0.015 0
0.03 0.015 0
0.035 0.015 0
0.04 0.015 0
0.045 0.015 0
0.05 0.015 0
0.055 0.015 0
0.06 0.015 0
0.065 0.015 0
0.07 0.015 0
0.075 0.015 0
0.08 0.015 0
0.085 0.015 0
0.09 0.015 0
0.095 0.015 0
0.1 0.015 0
0 0.02 0
0.005 0.02 0
0.01 0.02 0
0.015 0.02 0
0.02 0.02 0
0.025 0.02 0
0.03 0.02 0
0.035 0.02 0
0.04 0.02 0
0.045 0.02 0
0.05 0.02 0
0.055 0.02 0
0.06 0.02 0
0.065 0.02 0
0.07 0.02 0
0.075 0.02 0
0.08 0.02 0
0.085 0.02 0
0.09 0.02 0
0.095 0.02 0
0.1 0.02 0
0 0.025 0
0.005 0.025 0
0.01 0.025 0
0.015 0.025 0
0.02 0.025 0
0.025 0.025 0
0.03 0.025 0
0.035 0.025 0
0.04 0.025 0
0.045 0.025 0
0.05 0.025 0
0.055 0.025 0
0.06 0.025 0
0.065 0.025 0
0.07 0.025 0
0.075 0.025 0
0.08 0.025 0
0.085 0.025 0
0.09 0.025 0
0.095 0.025 0
0.1 0.025 0
0 0.03 0
0.005 0.03 0
0.01 0.03 0
0.015 0.03 0
0.02 0.03 0
0.025 0.03 0
0.03 0.03 0
0.035 0.03 0
0.04 0.03 0
0.045 0.03 0
0.05 0.03 0
0.055 0.03 0
0.06 0.03 0
0.065 0.03 0
0.07 0.03 0
0.075 0.03 0
0.08 0.03 0
0.085 0.03 0
0.09 0.03 0
0.095 0.03 0
0.1 0.03 0
0 0 0.005
0.005 0 0.005
0.01 0 0.005
0.015 0 0.005
0.02 0 0.005
0.025 0 0.005
0.03 0 0.005
0.035 0 0.005
0.04 0 0.005
0.045 0 0.005
0.05 0 0.005
0.055 0 0.005
0.06 0 0.005
0.065 0 0.005
0.07 0 0.005
0.075 0 0.005
0.08 0 0.005
0.085 0 0.005
0.09 0 0.005
0.095 0 0.005
0.1 0 0.005
0 0.005 0.005
0.005 0.005 0.005
0.01 0.005 0.005
0.015 0.005 0.005
0.02 0.005 0.005
0.025 0.005 0.005
0.03 0.005 0.005
0.035 0.005 0.005
0.04 0.005 0.005
0.045 0.005 0.005
0.05 0.005 0.005
0.055 0.005 0.005
0.06 0.005 0.005
0.065 0.005 0.005
0.07 0.005 0.005
0.075 0.005 0.005
0.08 0.005 0.005
0.085 0.005 0.005
0.09 0.005 0.005
0.095 0.005 0.005
0.1 0.005 0.005
0 0.01 0.005
0.005 0.01 0.005
0.01 0.01 0.005
0.015 0.01 0.005
0.02 0.01 0.005
0.025 0.01 0.005
0.03 0.01 0.005
0.035 0.01 0.005
0.04 0.01 0.005
0.045 0.01 0.005
0.05 0.01 0.005
0.055 0.01 0.005
0.06 0.01 0.005
0.065 0.01 0.005
0.07 0.01 0.005
0.075 0.01 0.005
0.08 0.01 0.005
0.085 0.01 0.005
0.09 0.01 0.005
0.095 0.01 0.005
0.1 0.01 0.005
0 0.015 0.005
0.005 0.015 0.005
0.01 0.015 0.005
0.015 0.015 0.005
0.02 0.015 0.005
0.025 0.015 0.005
0.03 0.015 0.005
0.035 0.015 0.005
0.04 0.015 0.005
0.045 0.015 0.005
0.05 0.015 0.005
0.055 0.015 0.005
0.06 0.015 0.005
0.065 0.015 0.005
0.07 0.015 0.005
0.075 0.015 0.005
0.08 0.015 0.005
0.085 0.015 0.005
0.09 0.015 0.005
0.095 0.015 0.005
0.1 0.015 0.005
0 0.02 0.005
0.005 0.02 0.005
0.01 0.02 0.005
0.015 0.02 0.005
0.02 0.02 0.005
0.025 0.02 0.005
0.03 0.02 0.005
0.035 0.02 0.005
0.04 0.02 0.005
0.045 0.02 0.005
0.05 0.02 0.005
0.055 0.02 0.005
0.06 0.02 0.005
0.065 0.02 0.005
0.07 0.02 0.005
0.075 0.02 0.005
0.08 0.02 0.005
0.085 0.02 0.005
0.09 0.02 0.005
0.095 0.02 0.005
0.1 0.02 0.005
0 0.025 0.005
0.005 0.025 0.005
0.01 0.025 0.005
0.015 0.025 0.005
0.02 0.025 0.005
0.025 0.025 0.005
0.03 0.025 0.005
0.035 0.025 0.005
0.04 0.025 0.005
0.045 0.025 0.005
0.05 0.025 0.005
0.055 0.025 0.005
0.06 0.025 0.005
0.065 0.025 0.005
0.07 0.025 0.005
0.075 0.025 0.005
0.08 0.025 0.005
0.085 0.025 0.005
0.09 0.025 0.005
0.095 0.025 0.005
0.1 0.025 0.005
0 0.03 0.005
0.005 0.03 0.005
0.01 0.03 0.005
0.015 0.03 0.005
0.02 0.03 0.005
0.025 0.03 0.005
0.03 0.03 0.005
0.035 0.03 0.005
0.04 0.03 0.005
0.045 0.03 0.005
0.05 0.03 0.005
0.055 0.03 0.005
0.06 0.03 0.005
0.065 0.03 0.005
0.07 0.03 0.005
0.075 0.03 0.005
0.08 0.03 0.005
0.085 0.03 0.005
0.09 0.03 0.005
0.095 0.03 0.005
0.1 0.03 0.005
0 0 0.01
0.005 0 0.01
0.01 0 0.01
0.015 0 0.01
0.02 0 0.01
0.025 0 0.01
0.03 0 0.01
0.035 0 0.01
0.04 0 0.01
0.045 0 0.01
0.05 0 0.01
0.055 0 0.01
0.06 0 0.01
0.065 0 0.01
0.07 0 0.01
0.075 0 0.01
0.08 0 0.01
0.085 0 0.01
0.09 0 0.01
0.095 0 0.01
0.1 0 0.01
0 0.005 0.01
0.005 0.005 0.01
0.01 0.005 0.01
0.015 0.005 0.01
0.02 0.005 0.01
0.025 0.005 0.01
0.03 0.005 0.01
0.035 0.005 0.01
0.04 0.005 0.01
0.045 0.005 0.01
0.05 0.005 0.01
0.055 0.005 0.01
0.06 0.005 0.01
0.065 0.005 0.01
0.07 0.005 0.01
0.075 0.005 0.01
0.08 0.005 0.01
0.085 0.005 0.01
0.09 0.005 0.01
0.095 0.005 0.01
0.1 0.005 0.01
0 0.01 0.01
0.005 0.01 0.01
0.01 0.01 0.01
0.015 0.01 0.01
0.02 0.01 0.01
0.025 0.01 0.01
0.03 0.01 0.01
0.035 0.01 0.01
0.04 0.01 0.01
0.045 0.01 0.01
0.05 0.01 0.01
0.055 0.01 0.01
0.06 0.01 0.01
0.065 0.01 0.01
0.07 0.01 0.01
0.075 0.01 0.01
0.08 0.01 0.01
0.085 0.01 0.01
0.09 0.01 0.01
0.095 0.01 0.01
0.1 0.01 0.01
0 0.015 0.01
0.005 0.015 0.01
0.01 0.015 0.01
0.015 0.015 0.01
0.02 0.015 0.01
0.025 0.015 0.01
0.03 0.015 0.01
0.035 0.015 0.01
0.04 0.015 0.01
0.045 0.015 0.01
0.05 0.015 0.01
0.055 0.015 0.01
0.06 0.015 0.01
0.065 0.015 0.01
0.07 0.015 0.01
0.075 0.015 0.01
0.08 0.015 0.01
0.085 0.015 0.01
0.09 0.015 0.01
0.095 0.015 0.01
0.1 0.015 0.01
0 0.02 0.01
0.005 0.02 0.01
0.01 0.02 0.01
0.015 0.02 0.01
0.02 0.02 0.01
0.025 0.02 0.01
0.03 0.02 0.01
0.035 0.02 0.01
0.04 0.02 0.01
0.045 0.02 0.01
0.05 0.02 0.01
0.055 0.02 0.01
0.06 0.02 0.01
0.065 0.02 0.01
0.07 0.02 0.01
0.075 0.02 0.01
0.08 0.02 0.01
0.085 0.02 0.01
0.09 0.02 0.01
0.095 0.02 0.01
0.1 0.02 0.01
0 0.025 0.01
0.005 0.025 0.01
0.01 0.025 0.01
0.015 0.025 0.01
0.02 0.025 0.01
0.025 0.025 0.01
0.03 0.025 0.01
0.035 0.025 0.01
0.04 0.025 0.01
0.045 0.025 0.01
0.05 0.025 0.01
0.055 0.025 0.01
0.06 0.025 0.01
0.065 0.025 0.01
0.07 0.025 0.01
0.075 0.025 0.01
0.08 0.025 0.01
0.085 0.025 0.01
0.09 0.025 0.01
0.095 0.025 0.01
0.1 0.025 0.01
0 0.03 0.01
0.005 0.03 0.01
0.01 0.03 0.01
0.015 0.03 0.01
0.02 0.03 0.01
0.025 0.03 0.01
0.03 0.03 0.01
0.035 0.03 0.01
0.04 0.03 0.01
0.045 0.03 0.01
0.05 0.03 0.01
0.055 0.03 0.01
0.06 0.03 0.01
0.065 0.03 0.01
0.07 0.03 0.01
0.075 0.03 0.01
0.08 0.03 0.01
0.085 0.03 0.01
0.09 0.03 0.01
0.095 0.03 0.01
0.1 0.03 0.01
0 0 0.015
0.005 0 0.015
0.01 0 0.015
0.015 0 0.015
0.02 0 0.015
0.025 0 0.015
0.03 0 0.015
0.035 0 0.015
0.04 0 0.015
0.045 0 0.015
0.05 0 0.015
0.055 0 0.015
0.06 0 0.015
0.065 0 0.015
0.07 0 0.015
0.075 0 0.015
0.08 0 0.015
0.085 0 0.015
0.09 0 0.015
0.095 0 0.015
0.1 0 0.015
0 0.005 0.015
0.005 0.005 0.015
0.01 0.005 0.015
0.015 0.005 0.015
0.02 0.005 0.015
0.025 0.005 0.015
0.03 0.005 0.015
0.035 0.005 0.015
0.04 0.005 0.015
0.045 0.005 0.015
0.05 0.005 0.015
0.055 0.005 0.015
0.06 0.005 0.015
0.065 0.005 0.015
0.07 0.005 0.015
0.075 0.005 0.015
0.08 0.005 0.015
0.085 0.005 0.015
0.09 0.005 0.015
0.095 0.005 0.015
0.1 0.005 0.015
0 0.01 0.015
0.005 0.01 0.015
0.01 0.01 0.015
0.015 0.01 0.015
0.02 0.01 0.015
0.025 0.01 0.015
0.03 0.01 0.015
0.035 0.01 0.015
0.04 0.01 0.015
0.045 0.01 0.015
0.05 0.01 0.015
0.055 0.01 0.015
0.06 0.01 0.015
0.065 0.01 0.015
0.07 0.01 0.015
0.075 0.01 0.015
0.08 0.01 0.015
0.085 0.01 0.015
0.09 0.01 0.015
0.095 0.01 0.015
0.1 0.01 0.015
0 0.015 0.015
0.005 0.015 0.015
0.01 0.015 0.015
0.015 0.015 0.015
0.02 0.015 0.015
0.025 0.015 0.015
0.03 0.015 0.015
0.035 0.015 0.015
0.04 0.015 0.015
0.045 0.015 0.015
0.05 0.015 0.015
0.055 0.015 0.015
0.06 0.015 0.015
0.065 0.015 0.015
0.07 0.015 0.015
0.075 0.015 0.015
0.08 0.015 0.015
0.085 0.015 0.015
0.09 0.015 0.015
0.095 0.015 0.015
0.1 0.015 0.015
0 0.02 0.015
0.005 0.02 0.015
0.01 0.02 0.015
0.015 0.02 0.015
0.02 0.02 0.015
0.025 0.02 0.015
0.03 0.02 0.015
0.035 0.02 0.015
0.04 0.02 0.015
0.045 0.02 0.015
0.05 0.02 0.015
0.055 0.02 0.015
0.06 0.02 0.015
0.065 0.02 0.015
0.07 0.02 0.015
0.075 0.02 0.015
0.08 0.02 0.015
0.085 0.02 0.015
0.09 0.02 0.015
0.095 0.02 0.015
0.1 0.02 0.015
0 0.025 0.015
0.005 0.025 0.015
0.01 0.025 0.015
0.015 0.025 0.015
0.02 0.025 0.015
0.025 0.025 0.015
0.03 0.025 0.015
0.035 0.025 0.015
0.04 0.025 0.015
0.045 0.025 0.015
0.05 0.025 0.015
0.055 0.025 0.015
0.06 0.025 0.015
0.065 0.025 0.015
0.07 0.025 0.015
0.075 0.025 0.015
0.08 0.025 0.015
0.085 0.025 0.015
0.09 0.025 0.015
0.095 0.025 0.015
0.1 0.025 0.015
0 0.03 0.015
0.005 0.03 0.015
0.01 0.03 0.015
0.015 0.03 0.015
0.02 0.03 0.015
0.025 0.03 0.015
0.03 0.03 0.015
0.035 0.03 0.015
0.04 0.03 0.015
0.045 0.03 0.015
0.05 0.03 0.015
0.055 0.03 0.015
0.06 0.03 0.015
0.065 0.03 0.015
0.07 0.03 0.015
0.075 0.03 0.015
0.08 0.03 0.015
0.085 0.03 0.015
0.09 0.03 0.015
0.095 0.03 0.015
0.1 0.03 0.015
0 0 0.02
0.005 0 0.02
0.01 0 0.02
0.015 0 0.02
0.02 0 0.02
0.025 0 0.02
0.03 0 0.02
0.035 0 0.02
0.04 0 0.02
0.045 0 0.02
0.05 0 0.02
0.055 0 0.02
0.06 0 0.02
0.065 0 0.02
0.07 0 0.02
0.075 0 0.02
0.08 0 0.02
0.085 0 0.02
0.09 0 0.02
0.095 0 0.02
0.1 0 0.02
0 0.005 0.02
0.005 0.005 0.02
0.01 0.005 0.02
0.015 0.005 0.02
0.02 0.005 0.02
0.025 0.005 0.02
0.03 0.005 0.02
0.035 0.005 0.02
0.04 0.005 0.02
0.045 0.005 0.02
0.05 0.005 0.02
0.055 0.005 0.02
0.06 0.005 0.02
0.065 0.005 0.02
0.07 0.005 0.02
0.075 0.005 0.02
0.08 0.005 0.02
0.085 0.005 0.02
0.09 0.005 0.02
0.095 0.005 0.02
0.1 0.005 0.02
0 0.01 0.02
0.005 0.01 0.02
0.01 0.01 0.02
0.015 0.01 0.02
0.02 0.01 0.02
0.025 0.01 0.02
0.03 0.01 0.02
0.035 0.01 0.02
0.04 0.01 0.02
0.045 0.01 0.02
0.05 0.01 0.02
0.055 0.01 0.02
0.06 0.01 0.02
0.065 0.01 0.02
0.07 0.01 0.02
0.075 0.01 0.02
0.08 0.01 0.02
0.085 0.01 0.02
0.09 0.01 0.02
0.095 0.01 0.02
[...]
<PointData Vectors="Displacement">
<DataArray type="Float32" Name="Displacement" NumberOfComponents="3" format="ascii">
0 0 0
0.0010008 0.00028506 0.00028506
0.00184892 0.000354423 0.000354423
0.00270757 0.000385816 0.000385816
0.00358909 0.000394239 0.000394239
0.00448611 0.000395852 0.000395852
0.00539145 0.000395435 0.000395435
0.00630046 0.000394835 0.000394835
0.00721085 0.00039444 0.00039444
0.00812165 0.000394246 0.000394246
0.00903253 0.000394183 0.000394183
0.00994338 0.00039421 0.00039421
0.0108541 0.000394323 0.000394323
0.0117645 0.000394531 0.000394531
0.012674 0.000394775 0.000394775
0.0135812 0.000394657 0.000394657
0.0144838 0.000392993 0.000392993
0.0153786 0.000385903 0.000385903
0.0162643 0.000367911 0.000367911
0.0171657 0.000297384 0.000297384
0.018 0.000244336 0.000244336
0 0 0
0.00092165 0.000150729 0.000286576
0.00180697 0.000234153 0.000359304
0.00268846 0.000258666 0.000387392
0.0035817 0.000265139 0.000394956
0.00448376 0.000265297 0.000396059
0.00539096 0.000264319 0.000395477
0.00630051 0.000263508 0.000394828
0.00721097 0.000263056 0.000394427
0.00812173 0.000262854 0.000394236
0.00903255 0.000262795 0.000394176
0.00994335 0.000262826 0.000394204
0.0108541 0.000262952 0.000394317
0.0117646 0.000263209 0.000394536
0.0126745 0.000263594 0.000394818
0.0135829 0.000263856 0.000394826
0.0144886 0.000262829 0.000393432
0.0153902 0.000257504 0.000387138
0.0162892 0.0002377 0.00037001
0.0171917 0.000196794 0.000294978
0.018 0.000170752 0.000236622
0 0 0
0.000910086 6.82274e-05 0.000294111
0.00177948 0.000112501 0.000365455
0.0026702 0.00013002 0.000391236
0.00357217 0.000133519 0.000396569
0.0044797 0.00013332 0.000396647
0.0053895 0.000132497 0.000395634
0.0063001 0.000131898 0.000394845
0.00721092 0.000131579 0.00039441
0.00812175 0.000131441 0.000394218
0.00903257 0.000131401 0.000394162
0.00994337 0.000131424 0.000394192
0.0108542 0.000131512 0.000394314
0.0117649 0.000131697 0.000394564
0.0126755 0.000131996 0.000394954
0.0135855 0.00013226 0.00039524
0.014494 0.000131798 0.000394485
0.0153992 0.000128014 0.000389076
0.0162968 0.000116447 0.000372055
0.017194 9.85732e-05 0.00029145
0.018 8.79556e-05 0.000226903
0 0 0
0.000907103 8.92765e-21 0.000296296
0.00177294 1.44106e-19 0.000368339
0.002663 3.87431e-19 0.000392866
0.00356813 2.36374e-19 0.000397394
0.00447781 -5.94732e-19 0.000396951
0.00538877 -1.95915e-18 0.000395726
0.00629987 -2.87445e-18 0.00039486
0.00721087 -3.21242e-18 0.000394405
0.00812175 -2.38536e-18 0.000394211
0.00903257 -6.61532e-19 0.000394156
0.00994339 1.46728e-18 0.000394188
0.0108542 3.03884e-18 0.000394314
0.0117651 3.80616e-18 0.000394583
0.012676 3.79256e-18 0.000395027
0.0135866 2.98452e-18 0.000395456
0.0144962 1.90027e-18 0.00039496
0.0154018 9.73992e-19 0.000389896
0.016298 -4.44967e-19 0.000372457
0.0171938 -9.87232e-19 0.000289918
0.018 4.2601e-19 0.000223728
0 0 0
0.000910086 -6.82274e-05 0.000294111
0.00177948 -0.000112501 0.000365455
0.0026702 -0.00013002 0.000391236
0.00357217 -0.000133519 0.000396569
0.0044797 -0.00013332 0.000396647
0.0053895 -0.000132497 0.000395634
0.0063001 -0.000131898 0.000394845
0.00721092 -0.000131579 0.00039441
0.00812175 -0.000131441 0.000394218
0.00903257 -0.000131401 0.000394162
0.00994337 -0.000131424 0.000394192
0.0108542 -0.000131512 0.000394314
0.0117649 -0.000131697 0.000394564
0.0126755 -0.000131996 0.000394954
0.0135855 -0.00013226 0.00039524
0.014494 -0.000131798 0.000394485
0.0153992 -0.000128014 0.000389076
0.0162968 -0.000116447 0.000372055
0.017194 -9.85732e-05 0.00029145
0.018 -8.79556e-05 0.000226903
0 0 0
0.00092165 -0.000150729 0.000286576
0.00180697 -0.000234153 0.000359304
0.00268846 -0.000258666 0.000387392
0.0035817 -0.000265139 0.000394956
0.00448376 -0.000265297 0.000396059
0.00539096 -0.000264319 0.000395477
0.00630051 -0.000263508 0.000394828
0.00721097 -0.000263056 0.000394427
0.00812173 -0.000262854 0.000394236
0.00903255 -0.000262795 0.000394176
0.00994335 -0.000262826 0.000394204
0.0108541 -0.000262952 0.000394317
0.0117646 -0.000263209 0.000394536
0.0126745 -0.000263594 0.000394818
0.0135829 -0.000263856 0.000394826
0.0144886 -0.000262829 0.000393432
0.0153902 -0.000257504 0.000387138
0.0162892 -0.0002377 0.00037001
0.0171917 -0.000196794 0.000294978
0.018 -0.000170752 0.000236622
0 0 0
0.0010008 -0.00028506 0.00028506
0.00184892 -0.000354423 0.000354423
0.00270757 -0.000385816 0.000385816
0.00358909 -0.000394239 0.000394239
0.00448611 -0.000395852 0.000395852
0.00539145 -0.000395435 0.000395435
0.00630046 -0.000394835 0.000394835
0.00721085 -0.00039444 0.00039444
0.00812165 -0.000394246 0.000394246
0.00903253 -0.000394183 0.000394183
0.00994338 -0.00039421 0.00039421
0.0108541 -0.000394323 0.000394323
0.0117645 -0.000394531 0.000394531
0.012674 -0.000394775 0.000394775
0.0135812 -0.000394657 0.000394657
0.0144838 -0.000392993 0.000392993
0.0153786 -0.000385903 0.000385903
0.0162643 -0.000367911 0.000367911
0.0171657 -0.000297384 0.000297384
0.018 -0.000244336 0.000244336
0 0 0
0.00092165 0.000286576 0.000150729
0.00180697 0.000359304 0.000234153
0.00268846 0.000387392 0.000258666
0.0035817 0.000394956 0.000265139
0.00448376 0.000396059 0.000265297
0.00539096 0.000395477 0.000264319
0.00630051 0.000394828 0.000263508
0.00721097 0.000394427 0.000263056
0.00812173 0.000394236 0.000262854
0.00903255 0.000394176 0.000262795
0.00994335 0.000394204 0.000262826
0.0108541 0.000394317 0.000262952
0.0117646 0.000394536 0.000263209
0.0126745 0.000394818 0.000263594
0.0135829 0.000394826 0.000263856
0.0144886 0.000393432 0.000262829
0.0153902 0.000387138 0.000257504
0.0162892 0.00037001 0.0002377
0.0171917 0.000294978 0.000196794
0.018 0.000236622 0.000170752
0 0 0
0.000840064 0.000149966 0.000149966
0.00176534 0.000233682 0.000233682
0.00267047 0.00025841 0.00025841
0.00357482 0.000264948 0.000264948
0.00448168 0.000265218 0.000265218
0.00539057 0.000264286 0.000264286
0.00630058 0.000263498 0.000263498
0.0072111 0.000263054 0.000263054
0.0081218 0.000262855 0.000262855
0.00903256 0.000262795 0.000262795
0.00994333 0.000262826 0.000262826
0.010854 0.00026295 0.00026295
0.0117646 0.000263201 0.000263201
0.0126749 0.000263573 0.000263573
0.0135845 0.000263808 0.000263808
0.0144932 0.000262751 0.000262751
0.0154015 0.000257465 0.000257465
0.0163153 0.000237672 0.000237672
0.0172196 0.000196606 0.000196606
0.018 0.000170106 0.000170106
0 0 0
0.000828019 6.67039e-05 0.000153089
0.0017381 0.000111038 0.000237399
0.00265283 0.000129105 0.000260615
0.00356587 0.000133071 0.000265929
0.0044779 0.000133134 0.00026556
0.00538924 0.000132436 0.000264375
0.00630022 0.000131884 0.000263505
0.00721105 0.000131579 0.000263043
0.00812183 0.000131444 0.000262844
0.00903258 0.000131404 0.000262787
0.00994334 0.000131425 0.000262819
0.0108541 0.00013151 0.000262947
0.0117649 0.000131684 0.000263217
0.0126758 0.000131951 0.000263652
0.0135869 0.000132142 0.000264063
0.0144984 0.000131551 0.000263382
0.0154105 0.000127623 0.000258624
0.0163238 0.000116209 0.00023843
0.0172229 9.90911e-05 0.000194282
0.018 8.89538e-05 0.000164867
0 0 0
0.000824641 4.87504e-19 0.000154593
0.00173165 1.87821e-18 0.000239115
0.00264595 3.67044e-18 0.000261766
0.00356206 3.73098e-18 0.000266473
0.00447614 1.04296e-18 0.000265766
0.00538856 -4.07105e-18 0.000264434
0.00630001 -9.39315e-18 0.000263514
0.00721101 -1.1216e-17 0.000263039
0.00812183 -9.04367e-18 0.000262838
0.00903259 -2.4455e-18 0.000262782
0.00994335 4.78869e-18 0.000262815
0.0108542 1.07681e-17 0.000262946
0.0117651 1.39844e-17 0.000263229
0.0126763 1.36732e-17 0.000263702
0.013588 1.101e-17 0.000264209
0.0145005 6.92962e-18 0.000263717
0.0154132 2.66509e-18 0.000259139
0.0163254 -1.31325e-18 0.000238604
0.0172232 -3.5443e-18 0.00019322
0.018 -2.55804e-19 0.000162796
0 0 0
0.000828019 -6.67039e-05 0.000153089
0.0017381 -0.000111038 0.000237399
0.00265283 -0.000129105 0.000260615
0.00356587 -0.000133071 0.000265929
0.0044779 -0.000133134 0.00026556
0.00538924 -0.000132436 0.000264375
0.00630022 -0.000131884 0.000263505
0.00721105 -0.000131579 0.000263043
0.00812183 -0.000131444 0.000262844
0.00903258 -0.000131404 0.000262787
0.00994334 -0.000131425 0.000262819
0.0108541 -0.00013151 0.000262947
0.0117649 -0.000131684 0.000263217
0.0126758 -0.000131951 0.000263652
0.0135869 -0.000132142 0.000264063
0.0144984 -0.000131551 0.000263382
0.0154105 -0.000127623 0.000258624
0.0163238 -0.000116209 0.00023843
0.0172229 -9.90911e-05 0.000194282
0.018 -8.89538e-05 0.000164867
0 0 0
0.000840064 -0.000149966 0.000149966
0.00176534 -0.000233682 0.000233682
0.00267047 -0.00025841 0.00025841
0.00357482 -0.000264948 0.000264948
0.00448168 -0.000265218 0.000265218
0.00539057 -0.000264286 0.000264286
0.00630058 -0.000263498 0.000263498
0.0072111 -0.000263054 0.000263054
0.0081218 -0.000262855 0.000262855
0.00903256 -0.000262795 0.000262795
0.00994333 -0.000262826 0.000262826
0.010854 -0.00026295 0.00026295
0.0117646 -0.000263201 0.000263201
0.0126749 -0.000263573 0.000263573
0.0135845 -0.000263808 0.000263808
0.0144932 -0.000262751 0.000262751
0.0154015 -0.000257465 0.000257465
0.0163153 -0.000237672 0.000237672
0.0172196 -0.000196606 0.000196606
0.018 -0.000170106 0.000170106
0 0 0
0.00092165 -0.000286576 0.000150729
0.00180697 -0.000359304 0.000234153
0.00268846 -0.000387392 0.000258666
0.0035817 -0.000394956 0.000265139
0.00448376 -0.000396059 0.000265297
0.00539096 -0.000395477 0.000264319
0.00630051 -0.000394828 0.000263508
0.00721097 -0.000394427 0.000263056
0.00812173 -0.000394236 0.000262854
0.00903255 -0.000394176 0.000262795
0.00994335 -0.000394204 0.000262826
0.0108541 -0.000394317 0.000262952
0.0117646 -0.000394536 0.000263209
0.0126745 -0.000394818 0.000263594
0.0135829 -0.000394826 0.000263856
0.0144886 -0.000393432 0.000262829
0.0153902 -0.000387138 0.000257504
0.0162892 -0.00037001 0.0002377
0.0171917 -0.000294978 0.000196794
0.018 -0.000236622 0.000170752
0 0 0
0.000910086 0.000294111 6.82274e-05
0.00177948 0.000365455 0.000112501
0.0026702 0.000391236 0.00013002
0.00357217 0.000396569 0.000133519
0.0044797 0.000396647 0.00013332
0.0053895 0.000395634 0.000132497
0.0063001 0.000394845 0.000131898
0.00721092 0.00039441 0.000131579
0.00812175 0.000394218 0.000131441
0.00903257 0.000394162 0.000131401
0.00994337 0.000394192 0.000131424
0.0108542 0.000394314 0.000131512
0.0117649 0.000394564 0.000131697
0.0126755 0.000394954 0.000131996
0.0135855 0.00039524 0.00013226
0.014494 0.000394485 0.000131798
0.0153992 0.000389076 0.000128014
0.0162968 0.000372055 0.000116447
0.017194 0.00029145 9.85732e-05
0.018 0.000226903 8.79556e-05
0 0 0
0.000828019 0.000153089 6.67039e-05
0.0017381 0.000237399 0.000111038
0.00265283 0.000260615 0.000129105
0.00356587 0.000265929 0.000133071
0.0044779 0.00026556 0.000133134
0.00538924 0.000264375 0.000132436
0.00630022 0.000263505 0.000131884
0.00721105 0.000263043 0.000131579
0.00812183 0.000262844 0.000131444
0.00903258 0.000262787 0.000131404
0.00994334 0.000262819 0.000131425
0.0108541 0.000262947 0.00013151
0.0117649 0.000263217 0.000131684
0.0126758 0.000263652 0.000131951
0.0135869 0.000264063 0.000132142
0.0144984 0.000263382 0.000131551
0.0154105 0.000258624 0.000127623
0.0163238 0.00023843 0.000116209
0.0172229 0.000194282 9.90911e-05
0.018 0.000164867 8.89538e-05
0 0 0
0.000816548 6.79317e-05 6.79317e-05
0.00171044 0.000112395 0.000112395
0.00263495 0.00013003 0.00013003
0.0035569 0.000133496 0.000133496
0.00447418 0.000133285 0.000133285
0.00538795 0.000132474 0.000132474
0.00629989 0.000131887 0.000131887
0.00721102 0.000131574 0.000131574
0.00812186 0.000131439 0.000131439
0.0090326 0.000131401 0.000131401
0.00994335 0.000131422 0.000131422
0.0108542 0.000131509 0.000131509
0.0117652 0.000131691 0.000131691
0.0126768 0.000131987 0.000131987
0.0135894 0.000132257 0.000132257
0.0145036 0.00013183 0.00013183
0.01542 0.000128049 0.000128049
0.0163321 0.00011635 0.00011635
0.0172253 9.81517e-05 9.81517e-05
0.018 8.69804e-05 8.69804e-05
0 0 0
0.000813341 -1.18116e-18 6.85434e-05
0.00170396 -9.16757e-19 0.000113157
0.00262794 1.21394e-18 0.000130555
0.00355306 2.42361e-18 0.000133756
0.00447243 9.10585e-19 0.000133383
0.00538729 -4.21156e-18 0.000132503
0.00629969 -1.00215e-17 0.000131891
0.00721098 -1.23591e-17 0.000131572
0.00812186 -1.00914e-17 0.000131437
0.00903261 -2.74699e-18 0.000131399
0.00994336 4.92321e-18 0.000131421
0.0108542 1.05093e-17 0.000131509
0.0117654 1.27435e-17 0.000131696
0.0126772 1.16188e-17 0.000132011
0.0135904 8.84571e-18 0.000132328
0.0145058 5.21496e-18 0.000131986
0.0154227 1.55742e-18 0.000128266
0.0163336 -1.24856e-18 0.000116386
0.0172253 -3.20924e-18 9.76599e-05
0.018 -1.20041e-19 8.6045e-05
0 0 0
0.000816548 -6.79317e-05 6.79317e-05
0.00171044 -0.000112395 0.000112395
0.00263495 -0.00013003 0.00013003
0.0035569 -0.000133496 0.000133496
0.00447418 -0.000133285 0.000133285
0.00538795 -0.000132474 0.000132474
0.00629989 -0.000131887 0.000131887
0.00721102 -0.000131574 0.000131574
0.00812186 -0.000131439 0.000131439
0.0090326 -0.000131401 0.000131401
0.00994335 -0.000131422 0.000131422
0.0108542 -0.000131509 0.000131509
0.0117652 -0.000131691 0.000131691
0.0126768 -0.000131987 0.000131987
0.0135894 -0.000132257 0.000132257
0.0145036 -0.00013183 0.00013183
0.01542 -0.000128049 0.000128049
0.0163321 -0.00011635 0.00011635
0.0172253 -9.81517e-05 9.81517e-05
0.018 -8.69804e-05 8.69804e-05
0 0 0
0.000828019 -0.000153089 6.67039e-05
0.0017381 -0.000237399 0.000111038
0.00265283 -0.000260615 0.000129105
0.00356587 -0.000265929 0.000133071
0.0044779 -0.00026556 0.000133134
0.00538924 -0.000264375 0.000132436
0.00630022 -0.000263505 0.000131884
0.00721105 -0.000263043 0.000131579
0.00812183 -0.000262844 0.000131444
0.00903258 -0.000262787 0.000131404
0.00994334 -0.000262819 0.000131425
0.0108541 -0.000262947 0.00013151
0.0117649 -0.000263217 0.000131684
0.0126758 -0.000263652 0.000131951
0.0135869 -0.000264063 0.000132142
0.0144984 -0.000263382 0.000131551
0.0154105 -0.000258624 0.000127623
0.0163238 -0.00023843 0.000116209
0.0172229 -0.000194282 9.90911e-05
0.018 -0.000164867 8.89538e-05
0 0 0
0.000910086 -0.000294111 6.82274e-05
0.00177948 -0.000365455 0.000112501
0.0026702 -0.000391236 0.00013002
0.00357217 -0.000396569 0.000133519
0.0044797 -0.000396647 0.00013332
0.0053895 -0.000395634 0.000132497
0.0063001 -0.000394845 0.000131898
0.00721092 -0.00039441 0.000131579
0.00812175 -0.000394218 0.000131441
0.00903257 -0.000394162 0.000131401
0.00994337 -0.000394192 0.000131424
0.0108542 -0.000394314 0.000131512
0.0117649 -0.000394564 0.000131697
0.0126755 -0.000394954 0.000131996
0.0135855 -0.00039524 0.00013226
0.014494 -0.000394485 0.000131798
0.0153992 -0.000389076 0.000128014
0.0162968 -0.000372055 0.000116447
0.017194 -0.00029145 9.85732e-05
0.018 -0.000226903 8.79556e-05
0 0 0
0.000907103 0.000296296 -7.82186e-19
0.00177294 0.000368339 -1.33473e-18
0.002663 0.000392866 -1.86478e-18
0.00356813 0.000397394 -2.81906e-18
0.00447781 0.000396951 -3.25891e-18
0.00538877 0.000395726 -3.48839e-18
0.00629987 0.00039486 -3.21825e-18
0.00721087 0.000394405 -3.08876e-18
0.00812175 0.000394211 -2.73725e-18
0.00903257 0.000394156 -1.42001e-18
0.00994339 0.000394188 -1.08824e-18
0.0108542 0.000394314 -3.41867e-19
0.0117651 0.000394583 4.27279e-19
0.012676 0.000395027 -6.92207e-19
0.0135866 0.000395456 -1.06244e-18
0.0144962 0.00039496 -9.90117e-19
0.0154018 0.000389896 -2.13724e-18
0.016298 0.000372457 -2.2591e-18
0.0171938 0.000289918 -3.2711e-18
0.018 0.000223728 -3.52078e-19
0 0 0
0.000824641 0.000154593 -2.92169e-18
0.00173165 0.000239115 -6.22296e-18
0.00264595 0.000261766 -8.85185e-18
0.00356206 0.000266473 -1.0786e-17
0.00447614 0.000265766 -1.09383e-17
0.00538856 0.000264434 -9.89217e-18
0.00630001 0.000263514 -8.0104e-18
0.00721101 0.000263039 -5.95395e-18
0.00812183 0.000262838 -4.65079e-18
0.00903259 0.000262782 -3.92472e-18
0.00994335 0.000262815 -3.71168e-18
0.0108542 0.000262946 -3.82966e-18
0.0117651 0.000263229 -3.64486e-18
0.0126763 0.000263702 -5.15723e-18
0.013588 0.000264209 -5.48488e-18
0.0145005 0.000263717 -5.63359e-18
0.0154132 0.000259139 -6.07318e-18
0.0163254 0.000238604 -6.47786e-18
0.0172232 0.00019322 -6.25945e-18
0.018 0.000162796 -2.41135e-18
0 0 0
0.000813341 6.85434e-05 -2.07043e-18
0.00170396 0.000113157 -4.53996e-18
0.00262794 0.000130555 -7.37017e-18
0.00355306 0.000133756 -9.61475e-18
0.00447243 0.000133383 -1.05266e-17
0.00538729 0.000132503 -1.03071e-17
0.00629969 0.000131891 -8.4632e-18
0.00721098 0.000131572 -6.92222e-18
0.00812186 0.000131437 -5.37739e-18
0.00903261 0.000131399 -4.09809e-18
0.00994336 0.000131421 -3.30947e-18
0.0108542 0.000131509 -2.69419e-18
0.0117654 0.000131696 -1.54865e-18
0.0126772 0.000132011 -2.45799e-18
0.0135904 0.000132328 -3.30665e-18
0.0145058 0.000131986 -4.04686e-18
0.0154227 0.000128266 -5.5966e-18
0.0163336 0.000116386 -6.50275e-18
0.0172253 9.76599e-05 -6.9196e-18
0.018 8.6045e-05 -2.6871e-18
0 0 0
0.000810168 -3.60516e-18 4.52421e-19
0.00169745 -4.62046e-18 6.14785e-19
0.00262086 -1.66215e-18 -9.04359e-20
0.00354918 2.55911e-18 -7.25929e-19
0.00447067 4.54521e-18 -1.1219e-18
0.00538663 3.03615e-18 -1.01004e-18
0.00629949 -7.99063e-19 -2.0919e-19
0.00721095 -3.0985e-18 1.96339e-19
0.00812186 -2.90692e-18 -5.37847e-20
0.00903262 6.2156e-19 -8.26387e-19
0.00994338 3.18781e-18 -1.52897e-18
0.0108543 3.64251e-18 -1.46079e-18
0.0117655 2.26102e-18 -3.25085e-19
0.0126777 2.71567e-19 -9.64089e-19
0.0135915 -8.78368e-19 -6.08882e-19
0.014508 -2.30067e-19 -1.08327e-19
0.0154254 1.60811e-18 -4.95436e-19
0.0163351 2.21645e-18 -9.42454e-19
0.0172252 2.75197e-18 -1.27612e-18
0.018 1.59564e-18 -1.48638e-18
0 0 0
0.000813341 -6.85434e-05 3.15493e-18
0.00170396 -0.000113157 5.74124e-18
0.00262794 -0.000130555 7.4638e-18
0.00355306 -0.000133756 8.21571e-18
0.00447243 -0.000133383 8.52532e-18
0.00538729 -0.000132503 8.50735e-18
0.00629969 -0.000131891 8.04132e-18
0.00721098 -0.000131572 6.88959e-18
0.00812186 -0.000131437 4.84016e-18
0.00903261 -0.000131399 2.65389e-18
0.00994336 -0.000131421 7.78575e-19
0.0108542 -0.000131509 -2.27726e-19
0.0117654 -0.000131696 4.96017e-19
0.0126772 -0.000132011 6.2366e-19
0.0135904 -0.000132328 2.15516e-18
0.0145058 -0.000131986 3.68571e-18
0.0154227 -0.000128266 4.25816e-18
0.0163336 -0.000116386 4.64602e-18
0.0172253 -9.76599e-05 3.92664e-18
0.018 -8.6045e-05 4.66193e-19
0 0 0
0.000824641 -0.000154593 3.50343e-18
0.00173165 -0.000239115 6.71547e-18
0.00264595 -0.000261766 8.94313e-18
0.00356206 -0.000266473 9.50658e-18
0.00447614 -0.000265766 9.27202e-18
0.00538856 -0.000264434 8.38024e-18
0.00630001 -0.000263514 7.30693e-18
0.00721101 -0.000263039 5.55017e-18
0.00812183 -0.000262838 3.99803e-18
0.00903259 -0.000262782 2.44005e-18
0.00994335 -0.000262815 1.49471e-18
0.0108542 -0.000262946 1.34798e-18
0.0117651 -0.000263229 2.69277e-18
0.0126763 -0.000263702 2.91001e-18
0.013588 -0.000264209 4.08315e-18
0.0145005 -0.000263717 4.93938e-18
0.0154132 -0.000259139 4.8588e-18
0.0163254 -0.000238604 4.56763e-18
0.0172232 -0.00019322 3.86759e-18
0.018 -0.000162796 3.456e-19
0 0 0
0.000907103 -0.000296296 7.57165e-19
0.00177294 -0.000368339 1.31438e-18
0.002663 -0.000392866 1.89782e-18
0.00356813 -0.000397394 2.27203e-18
0.00447781 -0.000396951 2.37191e-18
0.00538877 -0.000395726 2.22549e-18
0.00629987 -0.00039486 2.46186e-18
0.00721087 -0.000394405 1.84587e-18
0.00812175 -0.000394211 1.16609e-18
0.00903257 -0.000394156 -3.08232e-20
0.00994339 -0.000394188 -8.43977e-19
0.0108542 -0.000394314 -1.66116e-18
0.0117651 -0.000394583 -1.45893e-18
0.012676 -0.000395027 -1.61396e-18
0.0135866 -0.000395456 -7.76898e-19
0.0144962 -0.00039496 3.26444e-20
0.0154018 -0.000389896 7.63022e-19
0.016298 -0.000372457 6.34319e-19
0.0171938 -0.000289918 1.99326e-19
0.018 -0.000223728 -1.46734e-18
0 0 0
0.000910086 0.000294111 -6.82274e-05
0.00177948 0.000365455 -0.000112501
0.0026702 0.000391236 -0.00013002
0.00357217 0.000396569 -0.000133519
0.0044797 0.000396647 -0.00013332
0.0053895 0.000395634 -0.000132497
0.0063001 0.000394845 -0.000131898