<?xml version="1.0"?>
<VTKFile type="UnstructuredGrid" version="0.1" byte_order="LittleEndian">
<UnstructuredGrid>
<Piece NumberOfPoints="1029" NumberOfCells="720">
<Points>
<DataArray type="Float32" NumberOfComponents="3" format="ascii">
0 0 0
0.005 0 0
0.01 0 0
0.015 0 0
0.02 0 0
0.025 0 0
0.03 0 0
0.035 0 0
0.04 0 0
0.045 0 0
0.05 0 0
0.055 0 0
0.06 0 0
0.065 0 0
0.07 0 0
0.075 0 0
0.08 0 0
0.085 0 0
0.09 0 0
0.095 0 0
0.1 0 0
0 0.005 0
0.005 0.005 0
0.01 0.005 0
0.015 0.005 0
0.02 0.005 0
0.025 0.005 0
0.03 0.005 0
0.035 0.005 0
0.04 0.005 0
0.045 0.005 0
0.05 0.005 0
0.055 0.005 0
0.06 0.005 0
0.065 0.005 0
0.07 0.005 0
0.075 0.005 0
0.08 0.005 0
0.085 0.005 0
0.09 0.005 0
0.095 0.005 0
0.1 0.005 0
0 0.01 0
0.005 0.01 0
0.01 0.01 0
0.015 0.01 0
0.02 0.01 0
0.025 0.01 0
0.03 0.01 0
0.035 0.01 0
0.04 0.01 0
0.045 0.01 0
0.05 0.01 0
0.055 0.01 0
0.06 0.01 0
0.065 0.01 0
0.07 0.01 0
0.075 0.01 0
0.08 0.01 0
0.085 0.01 0
0.09 0.01 0
0.095 0.01 0
0.1 0.01 0
0 0.015 0
0.005 0.015 0
0.01 0.015 0
0.015 0.015 0
0.02 0.015 0
0.025 0.015 0
0.03 0.015 0
0.035 0.015 0
0.04 0.015 0
0.045 0.015 0
0.05 0.015 0
0.055 0.015 0
0.06 0.015 0
0.065 0.015 0
0.07 0.015 0
0.075 0.015 0
0.08 0.015 0
0.085 0.015 0
0.09 0.015 0
0.095 0.015 0
0.1 0.015 0
0 0.02 0
0.005 0.02 0
0.01 0.02 0
0.015 0.02 0
0.02 0.02 0
0.025 0.02 0
0.03 0.02 0
0.035 0.02 0
0.04 0.02 0
0.045 0.02 0
0.05 0.02 0
0.055 0.02 0
0.06 0.02 0
0.065 0.02 0
0.07 0.02 0
0.075 0.02 0
0.08 0.02 0
0.085 0.02 0
0.09 0.02 0
0.095 0.02 0
0.1 0.02 0
0 0.025 0
0.005 0.025 0
0.01 0.025 0
0.015 0.025 0
0.02 0.025 0
0.025 0.025 0
0.03 0.025 0
0.035 0.025 0
0.04 0.025 0
0.045 0.025 0
0.05 0.025 0
0.055 0.025 0
0.06 0.025 0
0.065 0.025 0
0.07 0.025 0
0.075 0.025 0
0.08 0.025 0
0.085 0.025 0
0.09 0.025 0
0.095 0.025 0
0.1 0.025 0
0 0.03 0
0.005 0.03 0
0.01 0.03 0
0.015 0.03 0
0.02 0.03 0
0.025 0.03 0
0.03 0.03 0
0.035 0.03 0
0.04 0.03 0
0.045 0.03 0
0.05 0.03 0
0.055 0.03 0
0.06 0.03 0
0.065 0.03 0
0.07 0.03 0
0.075 0.03 0
0.08 0.03 0
0.085 0.03 0
0.09 0.03 0
0.095 0.03 0
0.1 0.03 0
0 0 0.005
0.005 0 0.005
0.01 0 0.005
0.015 0 0.005
0.02 0 0.005
0.025 0 0.005
0.03 0 0.005
0.035 0 0.005
0.04 0 0.005
0.045 0 0.005
0.05 0 0.005
0.055 0 0.005
0.06 0 0.005
0.065 0 0.005
0.07 0 0.005
0.075 0 0.005
0.08 0 0.005
0.085 0 0.005
0.09 0 0.005
0.095 0 0.005
0.1 0 0.005
0 0.005 0.005
0.005 0.005 0.005
0.01 0.005 0.005
0.015 0.005 0.005
0.02 0.005 0.005
0.025 0.005 0.005
0.03 0.005 0.005
0.035 0.005 0.005
0.04 0.005 0.005
0.045 0.005 0.005
0.05 0.005 0.005
0.055 0.005 0.005
0.06 0.005 0.005
0.065 0.005 0.005
0.07 0.005 0.005
0.075 0.005 0.005
0.08 0.005 0.005
0.085 0.005 0.005
0.09 0.005 0.005
0.095 0.005 0.005
0.1 0.005 0.005
0 0.01 0.005
0.005 0.01 0.005
0.01 0.01 0.005
0.015 0.01 0.005
0.02 0.01 0.005
0.025 0.01 0.005
0.03 0.01 0.005
0.035 0.01 0.005
0.04 0.01 0.005
0.045 0.01 0.005
0.05 0.01 0.005
0.055 0.01 0.005
0.06 0.01 0.005
0.065 0.01 0.005
0.07 0.01 0.005
0.075 0.01 0.005
0.08 0.01 0.005
0.085 0.01 0.005
0.09 0.01 0.005
0.095 0.01 0.005
0.1 0.01 0.005
0 0.015 0.005
0.005 0.015 0.005
0.01 0.015 0.005
0.015 0.015 0.005
0.02 0.015 0.005
0.025 0.015 0.005
0.03 0.015 0.005
0.035 0.015 0.005
0.04 0.015 0.005
0.045 0.015 0.005
0.05 0.015 0.005
0.055 0.015 0.005
0.06 0.015 0.005
0.065 0.015 0.005
0.07 0.015 0.005
0.075 0.015 0.005
0.08 0.015 0.005
0.085 0.015 0.005
0.09 0.015 0.005
0.095 0.015 0.005
0.1 0.015 0.005
0 0.02 0.005
0.005 0.02 0.005
0.01 0.02 0.005
0.015 0.02 0.005
0.02 0.02 0.005
0.025 0.02 0.005
0.03 0.02 0.005
0.035 0.02 0.005
0.04 0.02 0.005
0.045 0.02 0.005
0.05 0.02 0.005
0.055 0.02 0.005
0.06 0.02 0.005
0.065 0.02 0.005
0.07 0.02 0.005
0.075 0.02 0.005
0.08 0.02 0.005
0.085 0.02 0.005
0.09 0.02 0.005
0.095 0.02 0.005
0.1 0.02 0.005
0 0.025 0.005
0.005 0.025 0.005
0.01 0.025 0.005
0.015 0.025 0.005
0.02 0.025 0.005
0.025 0.025 0.005
0.03 0.025 0.005
0.035 0.025 0.005
0.04 0.025 0.005
0.045 0.025 0.005
0.05 0.025 0.005
0.055 0.025 0.005
0.06 0.025 0.005
0.065 0.025 0.005
0.07 0.025 0.005
0.075 0.025 0.005
0.08 0.025 0.005
0.085 0.025 0.005
0.09 0.025 0.005
0.095 0.025 0.005
0.1 0.025 0.005
0 0.03 0.005
0.005 0.03 0.005
0.01 0.03 0.005
0.015 0.03 0.005
0.02 0.03 0.005
0.025 0.03 0.005
0.03 0.03 0.005
0.035 0.03 0.005
0.04 0.03 0.005
0.045 0.03 0.005
0.05 0.03 0.005
0.055 0.03 0.005
0.06 0.03 0.005
0.065 0.03 0.005
0.07 0.03 0.005
0.075 0.03 0.005
0.08 0.03 0.005
0.085 0.03 0.005
0.09 0.03 0.005
0.095 0.03 0.005
0.1 0.03 0.005
0 0 0.01
0.005 0 0.01
0.01 0 0.01
0.015 0 0.01
0.02 0 0.01
0.025 0 0.01
0.03 0 0.01
0.035 0 0.01
0.04 0 0.01
0.045 0 0.01
0.05 0 0.01
0.055 0 0.01
0.06 0 0.01
0.065 0 0.01
0.07 0 0.01
0.075 0 0.01
0.08 0 0.01
0.085 0 0.01
0.09 0 0.01
0.095 0 0.01
0.1 0 0.01
0 0.005 0.01
0.005 0.005 0.01
0.01 0.005 0.01
0.015 0.005 0.01
0.02 0.005 0.01
0.025 0.005 0.01
0.03 0.005 0.01
0.035 0.005 0.01
0.04 0.005 0.01
0.045 0.005 0.01
0.05 0.005 0.01
0.055 0.005 0.01
0.06 0.005 0.01
0.065 0.005 0.01
0.07 0.005 0.01
0.075 0.005 0.01
0.08 0.005 0.01
0.085 0.005 0.01
0.09 0.005 0.01
0.095 0.005 0.01
0.1 0.005 0.01
0 0.01 0.01
0.005 0.01 0.01
0.01 0.01 0.01
0.015 0.01 0.01
0.02 0.01 0.01
0.025 0.01 0.01
0.03 0.01 0.01
0.035 0.01 0.01
0.04 0.01 0.01
0.045 0.01 0.01
0.05 0.01 0.01
0.055 0.01 0.01
0.06 0.01 0.01
0.065 0.01 0.01
0.07 0.01 0.01
0.075 0.01 0.01
0.08 0.01 0.01
0.085 0.01 0.01
0.09 0.01 0.01
0.095 0.01 0.01
0.1 0.01 0.01
0 0.015 0.01
0.005 0.015 0.01
0.01 0.015 0.01
0.015 0.015 0.01
0.02 0.015 0.01
0.025 0.015 0.01
0.03 0.015 0.01
0.035 0.015 0.01
0.04 0.015 0.01
0.045 0.015 0.01
0.05 0.015 0.01
0.055 0.015 0.01
0.06 0.015 0.01
0.065 0.015 0.01
0.07 0.015 0.01
0.075 0.015 0.01
0.08 0.015 0.01
0.085 0.015 0.01
0.09 0.015 0.01
0.095 0.015 0.01
0.1 0.015 0.01
0 0.02 0.01
0.005 0.02 0.01
0.01 0.02 0.01
0.015 0.02 0.01
0.02 0.02 0.01
0.025 0.02 0.01
0.03 0.02 0.01
0.035 0.02 0.01
0.04 0.02 0.01
0.045 0.02 0.01
0.05 0.02 0.01
0.055 0.02 0.01
0.06 0.02 0.01
0.065 0.02 0.01
0.07 0.02 0.01
0.075 0.02 0.01
0.08 0.02 0.01
0.085 0.02 0.01
0.09 0.02 0.01
0.095 0.02 0.01
0.1 0.02 0.01
0 0.025 0.01
0.005 0.025 0.01
0.01 0.025 0.01
0.015 0.025 0.01
0.02 0.025 0.01
0.025 0.025 0.01
0.03 0.025 0.01
0.035 0.025 0.01
0.04 0.025 0.01
0.045 0.025 0.01
0.05 0.025 0.01
0.055 0.025 0.01
0.06 0.025 0.01
0.065 0.025 0.01
0.07 0.025 0.01
0.075 0.025 0.01
0.08 0.025 0.01
0.085 0.025 0.01
0.09 0.025 0.01
0.095 0.025 0.01
0.1 0.025 0.01
0 0.03 0.01
0.005 0.03 0.01
0.01 0.03 0.01
0.015 0.03 0.01
0.02 0.03 0.01
0.025 0.03 0.01
0.03 0.03 0.01
0.035 0.03 0.01
0.04 0.03 0.01
0.045 0.03 0.01
0.05 0.03 0.01
0.055 0.03 0.01
0.06 0.03 0.01
0.065 0.03 0.01
0.07 0.03 0.01
0.075 0.03 0.01
0.08 0.03 0.01
0.085 0.03 0.01
0.09 0.03 0.01
0.095 0.03 0.01
0.1 0.03 0.01
0 0 0.015
0.005 0 0.015
0.01 0 0.015
0.015 0 0.015
0.02 0 0.015
0.025 0 0.015
0.03 0 0.015
0.035 0 0.015
0.04 0 0.015
0.045 0 0.015
0.05 0 0.015
0.055 0 0.015
0.06 0 0.015
0.065 0 0.015
0.07 0 0.015
0.075 0 0.015
0.08 0 0.015
0.085 0 0.015
0.09 0 0.015
0.095 0 0.015
0.1 0 0.015
0 0.005 0.015
0.005 0.005 0.015
0.01 0.005 0.015
0.015 0.005 0.015
0.02 0.005 0.015
0.025 0.005 0.015
0.03 0.005 0.015
0.035 0.005 0.015
0.04 0.005 0.015
0.045 0.005 0.015
0.05 0.005 0.015
0.055 0.005 0.015
0.06 0.005 0.015
0.065 0.005 0.015
0.07 0.005 0.015
0.075 0.005 0.015
0.08 0.005 0.015
0.085 0.005 0.015
0.09 0.005 0.015
0.095 0.005 0.015
0.1 0.005 0.015
0 0.01 0.015
0.005 0.01 0.015
0.01 0.01 0.015
0.015 0.01 0.015
0.02 0.01 0.015
0.025 0.01 0.015
0.03 0.01 0.015
0.035 0.01 0.015
0.04 0.01 0.015
0.045 0.01 0.015
0.05 0.01 0.015
0.055 0.01 0.015
0.06 0.01 0.015
0.065 0.01 0.015
0.07 0.01 0.015
0.075 0.01 0.015
0.08 0.01 0.015
0.085 0.01 0.015
0.09 0.01 0.015
0.095 0.01 0.015
0.1 0.01 0.015
0 0.015 0.015
0.005 0.015 0.015
0.01 0.015 0.015
0.015 0.015 0.015
0.02 0.015 0.015
0.025 0.015 0.015
0.03 0.015 0.015
0.035 0.015 0.015
0.04 0.015 0.015
0.045 0.015 0.015
0.05 0.015 0.015
0.055 0.015 0.015
0.06 0.015 0.015
0.065 0.015 0.015
0.07 0.015 0.015
0.075 0.015 0.015
0.08 0.015 0.015
0.085 0.015 0.015
0.09 0.015 0.015
0.095 0.015 0.015
0.1 0.015 0.015
0 0.02 0.015
0.005 0.02 0.015
0.01 0.02 0.015
0.015 0.02 0.015
0.02 0.02 0.015
0.025 0.02 0.015
0.03 0.02 0.015
0.035 0.02 0.015
0.04 0.02 0.015
0.045 0.02 0.015
0.05 0.02 0.015
0.055 0.02 0.015
0.06 0.02 0.015
0.065 0.02 0.015
0.07 0.02 0.015
0.075 0.02 0.015
0.08 0.02 0.015
0.085 0.02 0.015
0.09 0.02 0.015
0.095 0.02 0.015
0.1 0.02 0.015
0 0.025 0.015
0.005 0.025 0.015
0.01 0.025 0.015
0.015 0.025 0.015
0.02 0.025 0.015
0.025 0.025 0.015
0.03 0.025 0.015
0.035 0.025 0.015
0.04 0.025 0.015
0.045 0.025 0.015
0.05 0.025 0.015
0.055 0.025 0.015
0.06 0.025 0.015
0.065 0.025 0.015
0.07 0.025 0.015
0.075 0.025 0.015
0.08 0.025 0.015
0.085 0.025 0.015
0.09 0.025 0.015
0.095 0.025 0.015
0.1 0.025 0.015
0 0.03 0.015
0.005 0.03 0.015
0.01 0.03 0.015
0.015 0.03 0.015
0.02 0.03 0.015
0.025 0.03 0.015
0.03 0.03 0.015
0.035 0.03 0.015
0.04 0.03 0.015
0.045 0.03 0.015
0.05 0.03 0.015
0.055 0.03 0.015
0.06 0.03 0.015
0.065 0.03 0.015
0.07 0.03 0.015
0.075 0.03 0.015
0.08 0.03 0.015
0.085 0.03 0.015
0.09 0.03 0.015
0.095 0.03 0.015
0.1 0.03 0.015
0 0 0.02
0.005 0 0.02
0.01 0 0.02
0.015 0 0.02
0.02 0 0.02
0.025 0 0.02
0.03 0 0.02
0.035 0 0.02
0.04 0 0.02
0.045 0 0.02
0.05 0 0.02
0.055 0 0.02
0.06 0 0.02
0.065 0 0.02
0.07 0 0.02
0.075 0 0.02
0.08 0 0.02
0.085 0 0.02
0.09 0 0.02
0.095 0 0.02
0.1 0 0.02
0 0.005 0.02
0.005 0.005 0.02
0.01 0.005 0.02
0.015 0.005 0.02
0.02 0.005 0.02
0.025 0.005 0.02
0.03 0.005 0.02
0.035 0.005 0.02
0.04 0.005 0.02
0.045 0.005 0.02
0.05 0.005 0.02
0.055 0.005 0.02
0.06 0.005 0.02
0.065 0.005 0.02
0.07 0.005 0.02
0.075 0.005 0.02
0.08 0.005 0.02
0.085 0.005 0.02
0.09 0.005 0.02
0.095 0.005 0.02
0.1 0.005 0.02
0 0.01 0.02
0.005 0.01 0.02
0.01 0.01 0.02
0.015 0.01 0.02
0.02 0.01 0.02
0.025 0.01 0.02
0.03 0.01 0.02
0.035 0.01 0.02
0.04 0.01 0.02
0.045 0.01 0.02
0.05 0.01 0.02
0.055 0.01 0.02
0.06 0.01 0.02
0.065 0.01 0.02
0.07 0.01 0.02
0.075 0.01 0.02
0.08 0.01 0.02
0.085 0.01 0.02
0.09 0.01 0.02
0.095 0.01 0.02
[...]
<PointData Vectors="Displacement">
<DataArray type="Float32" Name="Displacement" NumberOfComponents="3" format="ascii">
0 0 0
0.000947839 0.00026728 0.00026728
0.00174972 0.000333227 0.000333227
0.00256101 0.000363062 0.000363062
0.00339366 0.000371142 0.000371142
0.00424098 0.000372691 0.000372691
0.00509622 0.000372283 0.000372283
0.00595501 0.000371696 0.000371696
0.00681515 0.000371305 0.000371305
0.00767568 0.000371113 0.000371113
0.0085363 0.000371052 0.000371052
0.00939689 0.000371083 0.000371083
0.0102574 0.000371204 0.000371204
0.0111175 0.000371426 0.000371426
0.0119766 0.000371684 0.000371684
0.0128334 0.000371567 0.000371567
0.0136855 0.000369851 0.000369851
0.0145297 0.000362577 0.000362577
0.0153646 0.000344115 0.000344115
0.0162161 0.000272463 0.000272463
0.017 0.000218734 0.000218734
0 0 0
0.000872742 0.000141056 0.000268609
0.0017097 0.000219949 0.000337779
0.00254268 0.000243387 0.000364554
0.00338653 0.000249632 0.000371824
0.0042387 0.00024981 0.00037289
0.00509575 0.000248868 0.000372325
0.00595506 0.000248078 0.000371689
0.00681526 0.000247633 0.000371293
0.00767576 0.000247433 0.000371103
0.00853631 0.000247374 0.000371045
0.00939686 0.000247409 0.000371076
0.0102573 0.000247544 0.000371198
0.0111175 0.000247816 0.000371431
0.0119771 0.00024822 0.000371729
0.0128352 0.000248491 0.000371741
0.0136905 0.000247422 0.0003703
0.0145416 0.00024192 0.000363827
0.0153903 0.000221655 0.00034621
0.0162427 0.000180131 0.000270005
0.017 0.00015379 0.000210922
0 0 0
0.000861864 6.38142e-05 0.000275441
0.00168374 0.000105567 0.000343473
0.00252529 0.000122302 0.000368155
0.0033774 0.000125716 0.000373354
0.00423477 0.000125551 0.000373455
0.00509433 0.000124763 0.000372478
0.00595467 0.000124181 0.000371706
0.00681521 0.000123867 0.000371277
0.00767578 0.00012373 0.000371086
0.00853633 0.000123692 0.000371031
0.00939687 0.000123716 0.000371065
0.0102574 0.00012381 0.000371195
0.0111179 0.000124006 0.000371461
0.0119782 0.000124318 0.000371871
0.0128379 0.000124589 0.000372167
0.0136961 0.000124095 0.000371369
0.0145508 0.000120182 0.000365776
0.015398 0.000108368 0.00034822
0.0162451 9.02521e-05 0.000266412
0.017 7.95195e-05 0.000201114
0 0 0
0.000859053 -1.78998e-18 0.000277419
0.00167759 -3.6359e-18 0.000346128
0.00251847 -3.77328e-18 0.00036968
0.00337353 -3.00555e-18 0.000374134
0.00423294 -1.94562e-18 0.000373746
0.00509362 -6.2835e-19 0.000372568
0.00595444 3.91094e-19 0.000371722
0.00681516 8.33594e-19 0.000371272
0.00767578 1.10061e-18 0.000371079
0.00853634 1.26486e-18 0.000371025
0.00939689 1.23531e-18 0.00037106
0.0102575 8.8367e-19 0.000371196
0.0111181 2.69749e-19 0.00037148
0.0119787 -2.91257e-19 0.000371947
0.0128391 -1.44773e-19 0.000372389
0.0136983 6.46607e-19 0.000371852
0.0145535 2.31006e-18 0.000366595
0.0153993 3.3089e-18 0.000348606
0.0162449 3.7947e-18 0.000264854
0.017 2.79316e-18 0.000197911
0 0 0
0.000861864 -6.38142e-05 0.000275441
0.00168374 -0.000105567 0.000343473
0.00252529 -0.000122302 0.000368155
0.0033774 -0.000125716 0.000373354
0.00423477 -0.000125551 0.000373455
0.00509433 -0.000124763 0.000372478
0.00595467 -0.000124181 0.000371706
0.00681521 -0.000123867 0.000371277
0.00767578 -0.00012373 0.000371086
0.00853633 -0.000123692 0.000371031
0.00939687 -0.000123716 0.000371065
0.0102574 -0.00012381 0.000371195
0.0111179 -0.000124006 0.000371461
0.0119782 -0.000124318 0.000371871
0.0128379 -0.000124589 0.000372167
0.0136961 -0.000124095 0.000371369
0.0145508 -0.000120182 0.000365776
0.015398 -0.000108368 0.00034822
0.0162451 -9.02521e-05 0.000266412
0.017 -7.95195e-05 0.000201114
0 0 0
0.000872742 -0.000141056 0.000268609
0.0017097 -0.000219949 0.000337779
0.00254268 -0.000243387 0.000364554
0.00338653 -0.000249632 0.000371824
0.0042387 -0.00024981 0.00037289
0.00509575 -0.000248868 0.000372325
0.00595506 -0.000248078 0.000371689
0.00681526 -0.000247633 0.000371293
0.00767576 -0.000247433 0.000371103
0.00853631 -0.000247374 0.000371045
0.00939686 -0.000247409 0.000371076
0.0102573 -0.000247544 0.000371198
0.0111175 -0.000247816 0.000371431
0.0119771 -0.00024822 0.000371729
0.0128352 -0.000248491 0.000371741
0.0136905 -0.000247422 0.0003703
0.0145416 -0.00024192 0.000363827
0.0153903 -0.000221655 0.00034621
0.0162427 -0.000180131 0.000270005
0.017 -0.00015379 0.000210922
0 0 0
0.000947839 -0.00026728 0.00026728
0.00174972 -0.000333227 0.000333227
0.00256101 -0.000363062 0.000363062
0.00339366 -0.000371142 0.000371142
0.00424098 -0.000372691 0.000372691
0.00509622 -0.000372283 0.000372283
0.00595501 -0.000371696 0.000371696
0.00681515 -0.000371305 0.000371305
0.00767568 -0.000371113 0.000371113
0.0085363 -0.000371052 0.000371052
0.00939689 -0.000371083 0.000371083
0.0102574 -0.000371204 0.000371204
0.0111175 -0.000371426 0.000371426
0.0119766 -0.000371684 0.000371684
0.0128334 -0.000371567 0.000371567
0.0136855 -0.000369851 0.000369851
0.0145297 -0.000362577 0.000362577
0.0153646 -0.000344115 0.000344115
0.0162161 -0.000272463 0.000272463
0.017 -0.000218734 0.000218734
0 0 0
0.000872742 0.000268609 0.000141056
0.0017097 0.000337779 0.000219949
0.00254268 0.000364554 0.000243387
0.00338653 0.000371824 0.000249632
0.0042387 0.00037289 0.00024981
0.00509575 0.000372325 0.000248868
0.00595506 0.000371689 0.000248078
0.00681526 0.000371293 0.000247633
0.00767576 0.000371103 0.000247433
0.00853631 0.000371045 0.000247374
0.00939686 0.000371076 0.000247409
0.0102573 0.000371198 0.000247544
0.0111175 0.000371431 0.000247816
0.0119771 0.000371729 0.00024822
0.0128352 0.000371741 0.000248491
0.0136905 0.0003703 0.000247422
0.0145416 0.000363827 0.00024192
0.0153903 0.00034621 0.000221655
0.0162427 0.000270005 0.000180131
0.017 0.000210922 0.00015379
0 0 0
0.000795411 0.000140353 0.000140353
0.00166994 0.000219497 0.000219497
0.0025254 0.000243144 0.000243144
0.00337989 0.000249449 0.000249449
0.00423667 0.000249734 0.000249734
0.00509537 0.000248836 0.000248836
0.00595514 0.000248068 0.000248068
0.00681539 0.000247631 0.000247631
0.00767583 0.000247433 0.000247433
0.00853633 0.000247375 0.000247375
0.00939683 0.000247409 0.000247409
0.0102573 0.000247542 0.000247542
0.0111176 0.000247808 0.000247808
0.0119776 0.000248198 0.000248198
0.0128369 0.000248441 0.000248441
0.0136953 0.000247341 0.000247341
0.0145533 0.000241877 0.000241877
0.015417 0.000221625 0.000221625
0.0162713 0.000179947 0.000179947
0.017 0.000153161 0.000153161
0 0 0
0.000784071 6.24184e-05 0.000143168
0.00164419 0.000104209 0.000222915
0.00250858 0.00012144 0.0002452
0.0033713 0.00012529 0.000250375
0.00423302 0.000125373 0.00025006
0.00509407 0.000124704 0.000248923
0.00595479 0.000124167 0.000248075
0.00681535 0.000123867 0.00024762
0.00767586 0.000123734 0.000247422
0.00853635 0.000123695 0.000247366
0.00939684 0.000123718 0.000247402
0.0102573 0.000123809 0.000247539
0.0111179 0.000123992 0.000247824
0.0119785 0.000124271 0.00024828
0.0128394 0.000124467 0.000248702
0.0137006 0.000123844 0.00024798
0.0145626 0.000119789 0.000243037
0.0154257 0.000108136 0.000222359
0.0162747 9.07859e-05 0.000177586
0.017 8.05432e-05 0.000147881
0 0 0
0.000780891 -7.24482e-18 0.000144532
0.00163812 -1.22769e-17 0.000224489
0.00250206 -1.38737e-17 0.000246272
0.00336765 -1.15693e-17 0.000250888
0.00423132 -7.88099e-18 0.000250257
0.00509341 -4.93436e-18 0.00024898
0.00595458 -3.55748e-18 0.000248084
0.0068153 -3.16056e-18 0.000247616
0.00767586 -3.47643e-18 0.000247417
0.00853635 -3.56839e-18 0.000247362
0.00939685 -3.81932e-18 0.000247399
0.0102574 -4.68378e-18 0.000247539
0.0111181 -6.20752e-18 0.000247837
0.011979 -7.69665e-18 0.000248332
0.0128405 -7.38879e-18 0.000248851
0.0137028 -4.38396e-18 0.000248318
0.0145653 1.07545e-18 0.00024355
0.0154274 6.76876e-18 0.000222521
0.016275 8.94863e-18 0.000176507
0.017 3.73721e-18 0.000145794
0 0 0
0.000784071 -6.24184e-05 0.000143168
0.00164419 -0.000104209 0.000222915
0.00250858 -0.00012144 0.0002452
0.0033713 -0.00012529 0.000250375
0.00423302 -0.000125373 0.00025006
0.00509407 -0.000124704 0.000248923
0.00595479 -0.000124167 0.000248075
0.00681535 -0.000123867 0.00024762
0.00767586 -0.000123734 0.000247422
0.00853635 -0.000123695 0.000247366
0.00939684 -0.000123718 0.000247402
0.0102573 -0.000123809 0.000247539
0.0111179 -0.000123992 0.000247824
0.0119785 -0.000124271 0.00024828
0.0128394 -0.000124467 0.000248702
0.0137006 -0.000123844 0.00024798
0.0145626 -0.000119789 0.000243037
0.0154257 -0.000108136 0.000222359
0.0162747 -9.07859e-05 0.000177586
0.017 -8.05432e-05 0.000147881
0 0 0
0.000795411 -0.000140353 0.000140353
0.00166994 -0.000219497 0.000219497
0.0025254 -0.000243144 0.000243144
0.00337989 -0.000249449 0.000249449
0.00423667 -0.000249734 0.000249734
0.00509537 -0.000248836 0.000248836
0.00595514 -0.000248068 0.000248068
0.00681539 -0.000247631 0.000247631
0.00767583 -0.000247433 0.000247433
0.00853633 -0.000247375 0.000247375
0.00939683 -0.000247409 0.000247409
0.0102573 -0.000247542 0.000247542
0.0111176 -0.000247808 0.000247808
0.0119776 -0.000248198 0.000248198
0.0128369 -0.000248441 0.000248441
0.0136953 -0.000247341 0.000247341
0.0145533 -0.000241877 0.000241877
0.015417 -0.000221625 0.000221625
0.0162713 -0.000179947 0.000179947
0.017 -0.000153161 0.000153161
0 0 0
0.000872742 -0.000268609 0.000141056
0.0017097 -0.000337779 0.000219949
0.00254268 -0.000364554 0.000243387
0.00338653 -0.000371824 0.000249632
0.0042387 -0.00037289 0.00024981
0.00509575 -0.000372325 0.000248868
0.00595506 -0.000371689 0.000248078
0.00681526 -0.000371293 0.000247633
0.00767576 -0.000371103 0.000247433
0.00853631 -0.000371045 0.000247374
0.00939686 -0.000371076 0.000247409
0.0102573 -0.000371198 0.000247544
0.0111175 -0.000371431 0.000247816
0.0119771 -0.000371729 0.00024822
0.0128352 -0.000371741 0.000248491
0.0136905 -0.0003703 0.000247422
0.0145416 -0.000363827 0.00024192
0.0153903 -0.00034621 0.000221655
0.0162427 -0.000270005 0.000180131
0.017 -0.000210922 0.00015379
0 0 0
0.000861864 0.000275441 6.38142e-05
0.00168374 0.000343473 0.000105567
0.00252529 0.000368155 0.000122302
0.0033774 0.000373354 0.000125716
0.00423477 0.000373455 0.000125551
0.00509433 0.000372478 0.000124763
0.00595467 0.000371706 0.000124181
0.00681521 0.000371277 0.000123867
0.00767578 0.000371086 0.00012373
0.00853633 0.000371031 0.000123692
0.00939687 0.000371065 0.000123716
0.0102574 0.000371195 0.00012381
0.0111179 0.000371461 0.000124006
0.0119782 0.000371871 0.000124318
0.0128379 0.000372167 0.000124589
0.0136961 0.000371369 0.000124095
0.0145508 0.000365776 0.000120182
0.015398 0.00034822 0.000108368
0.0162451 0.000266412 9.02521e-05
0.017 0.000201114 7.95195e-05
0 0 0
0.000784071 0.000143168 6.24184e-05
0.00164419 0.000222915 0.000104209
0.00250858 0.0002452 0.00012144
0.0033713 0.000250375 0.00012529
0.00423302 0.00025006 0.000125373
0.00509407 0.000248923 0.000124704
0.00595479 0.000248075 0.000124167
0.00681535 0.00024762 0.000123867
0.00767586 0.000247422 0.000123734
0.00853635 0.000247366 0.000123695
0.00939684 0.000247402 0.000123718
0.0102573 0.000247539 0.000123809
0.0111179 0.000247824 0.000123992
0.0119785 0.00024828 0.000124271
0.0128394 0.000248702 0.000124467
0.0137006 0.00024798 0.000123844
0.0145626 0.000243037 0.000119789
0.0154257 0.000222359 0.000108136
0.0162747 0.000177586 9.07859e-05
0.017 0.000147881 8.05432e-05
0 0 0
0.000773261 6.35242e-05 6.35242e-05
0.00161807 0.000105449 0.000105449
0.00249155 0.000122298 0.000122298
0.00336268 0.00012569 0.00012569
0.00422942 0.000125516 0.000125516
0.00509282 0.000124741 0.000124741
0.00595446 0.00012417 0.00012417
0.00681532 0.000123862 0.000123862
0.00767588 0.000123729 0.000123729
0.00853636 0.000123691 0.000123691
0.00939685 0.000123715 0.000123715
0.0102574 0.000123807 0.000123807
0.0111182 0.000123999 0.000123999
0.0119795 0.000124308 0.000124308
0.0128419 0.000124584 0.000124584
0.013706 0.000124125 0.000124125
0.0145722 0.000120211 0.000120211
0.0154342 0.000108265 0.000108265
0.0162772 8.98346e-05 8.98346e-05
0.017 7.85604e-05 7.85604e-05
0 0 0
0.000770238 -8.18849e-18 6.40773e-05
0.00161198 -1.38417e-17 0.000106146
0.0024849 -1.44997e-17 0.000122784
0.003359 -1.08035e-17 0.000125934
0.00422772 -6.10943e-18 0.00012561
0.00509217 -2.83232e-18 0.000124769
0.00595426 -2.13124e-18 0.000124174
0.00681528 -2.89686e-18 0.00012386
0.00767589 -3.3546e-18 0.000123726
0.00853637 -2.16479e-18 0.000123689
0.00939686 -1.13801e-18 0.000123714
0.0102575 -1.22221e-18 0.000123807
0.0111184 -3.11207e-18 0.000124005
0.01198 -5.95442e-18 0.000124333
0.012843 -7.29939e-18 0.000124656
0.0137083 -5.42047e-18 0.000124282
0.014575 1.42782e-19 0.000120427
0.0154358 7.03384e-18 0.000108294
0.0162772 9.01071e-18 8.93358e-05
0.017 3.66673e-18 7.76183e-05
0 0 0
0.000773261 -6.35242e-05 6.35242e-05
0.00161807 -0.000105449 0.000105449
0.00249155 -0.000122298 0.000122298
0.00336268 -0.00012569 0.00012569
0.00422942 -0.000125516 0.000125516
0.00509282 -0.000124741 0.000124741
0.00595446 -0.00012417 0.00012417
0.00681532 -0.000123862 0.000123862
0.00767588 -0.000123729 0.000123729
0.00853636 -0.000123691 0.000123691
0.00939685 -0.000123715 0.000123715
0.0102574 -0.000123807 0.000123807
0.0111182 -0.000123999 0.000123999
0.0119795 -0.000124308 0.000124308
0.0128419 -0.000124584 0.000124584
0.013706 -0.000124125 0.000124125
0.0145722 -0.000120211 0.000120211
0.0154342 -0.000108265 0.000108265
0.0162772 -8.98346e-05 8.98346e-05
0.017 -7.85604e-05 7.85604e-05
0 0 0
0.000784071 -0.000143168 6.24184e-05
0.00164419 -0.000222915 0.000104209
0.00250858 -0.0002452 0.00012144
0.0033713 -0.000250375 0.00012529
0.00423302 -0.00025006 0.000125373
0.00509407 -0.000248923 0.000124704
0.00595479 -0.000248075 0.000124167
0.00681535 -0.00024762 0.000123867
0.00767586 -0.000247422 0.000123734
0.00853635 -0.000247366 0.000123695
0.00939684 -0.000247402 0.000123718
0.0102573 -0.000247539 0.000123809
0.0111179 -0.000247824 0.000123992
0.0119785 -0.00024828 0.000124271
0.0128394 -0.000248702 0.000124467
0.0137006 -0.00024798 0.000123844
0.0145626 -0.000243037 0.000119789
0.0154257 -0.000222359 0.000108136
0.0162747 -0.000177586 9.07859e-05
0.017 -0.000147881 8.05432e-05
0 0 0
0.000861864 -0.000275441 6.38142e-05
0.00168374 -0.000343473 0.000105567
0.00252529 -0.000368155 0.000122302
0.0033774 -0.000373354 0.000125716
0.00423477 -0.000373455 0.000125551
0.00509433 -0.000372478 0.000124763
0.00595467 -0.000371706 0.000124181
0.00681521 -0.000371277 0.000123867
0.00767578 -0.000371086 0.00012373
0.00853633 -0.000371031 0.000123692
0.00939687 -0.000371065 0.000123716
0.0102574 -0.000371195 0.00012381
0.0111179 -0.000371461 0.000124006
0.0119782 -0.000371871 0.000124318
0.0128379 -0.000372167 0.000124589
0.0136961 -0.000371369 0.000124095
0.0145508 -0.000365776 0.000120182
0.015398 -0.00034822 0.000108368
0.0162451 -0.000266412 9.02521e-05
0.017 -0.000201114 7.95195e-05
0 0 0
0.000859053 0.000277419 -1.09526e-18
0.00167759 0.000346128 -1.84309e-18
0.00251847 0.00036968 -2.28636e-18
0.00337353 0.000374134 -2.5514e-18
0.00423294 0.000373746 -1.69513e-18
0.00509362 0.000372568 -5.27652e-19
0.00595444 0.000371722 1.06984e-18
0.00681516 0.000371272 2.47917e-18
0.00767578 0.000371079 3.04535e-18
0.00853634 0.000371025 3.38713e-18
0.00939689 0.00037106 2.2251e-18
0.0102575 0.000371196 1.87095e-18
0.0111181 0.00037148 1.85518e-18
0.0119787 0.000371947 8.88432e-20
0.0128391 0.000372389 3.342e-19
0.0136983 0.000371852 9.68798e-19
0.0145535 0.000366595 8.85439e-19
0.0153993 0.000348606 6.07314e-19
0.0162449 0.000264854 -3.3968e-19
0.017 0.000197911 8.27994e-19
0 0 0
0.000780891 0.000144532 -1.59081e-18
0.00163812 0.000224489 -3.32265e-18
0.00250206 0.000246272 -5.19023e-18
0.00336765 0.000250888 -5.61876e-18
0.00423132 0.000250257 -4.23098e-18
0.00509341 0.00024898 -3.44458e-19
0.00595458 0.000248084 4.76726e-18
0.0068153 0.000247616 9.34862e-18
0.00767586 0.000247417 1.1884e-17
0.00853635 0.000247362 1.19007e-17
0.00939685 0.000247399 1.00386e-17
0.0102574 0.000247539 7.44504e-18
0.0111181 0.000247837 6.06255e-18
0.011979 0.000248332 3.91523e-18
0.0128405 0.000248851 3.28993e-18
0.0137028 0.000248318 2.54393e-18
0.0145653 0.00024355 7.98553e-19
0.0154274 0.000222521 -1.02204e-18
0.016275 0.000176507 -1.51153e-18
0.017 0.000145794 -4.53373e-19
0 0 0
0.000770238 6.40773e-05 -1.32616e-18
0.00161198 0.000106146 -3.59028e-18
0.0024849 0.000122784 -6.1845e-18
0.003359 0.000125934 -7.72775e-18
0.00422772 0.00012561 -6.63612e-18
0.00509217 0.000124769 -2.38378e-18
0.00595426 0.000124174 3.51543e-18
0.00681528 0.00012386 8.85581e-18
0.00767589 0.000123726 1.13761e-17
0.00853637 0.000123689 1.09653e-17
0.00939686 0.000123714 7.6875e-18
0.0102575 0.000123807 4.48625e-18
0.0111184 0.000124005 3.04994e-18
0.01198 0.000124333 1.9823e-18
0.012843 0.000124656 2.36467e-18
0.0137083 0.000124282 2.7905e-18
0.014575 0.000120427 1.37083e-18
0.0154358 0.000108294 -3.11799e-19
0.0162772 8.93358e-05 -1.56626e-18
0.017 7.76183e-05 -4.27038e-19
0 0 0
0.000767248 -3.26996e-18 2.10185e-18
0.00160587 -4.54946e-18 3.02164e-18
0.00247819 -2.26887e-18 1.48837e-18
0.00335529 1.97992e-18 -7.31503e-19
0.00422602 5.062e-18 -2.19718e-18
0.00509152 4.75884e-18 -1.65594e-18
0.00595406 1.4788e-18 6.92725e-19
0.00681524 -2.03742e-18 2.81939e-18
0.00767589 -3.46215e-18 3.34437e-18
0.00853638 -7.23489e-19 2.24106e-18
0.00939687 2.98969e-18 -6.08733e-19
0.0102575 6.00218e-18 -1.86854e-18
0.0111185 5.96643e-18 -9.81308e-19
0.0119805 2.87571e-18 2.87233e-19
0.0128442 -8.2319e-19 2.25974e-18
0.0137106 -2.12641e-18 3.34615e-18
0.0145778 -3.15489e-19 2.00537e-18
0.0154373 3.75489e-18 -2.75018e-19
0.0162771 5.05966e-18 -1.72735e-18
0.017 2.40967e-18 -8.39922e-19
0 0 0
0.000770238 -6.40773e-05 5.28552e-18
0.00161198 -0.000106146 9.03025e-18
0.0024849 -0.000122784 9.25348e-18
0.003359 -0.000125934 6.50928e-18
0.00422772 -0.00012561 2.74022e-18
0.00509217 -0.000124769 -3.89721e-19
0.00595426 -0.000124174 -2.33266e-18
0.00681528 -0.00012386 -3.94547e-18
0.00767589 -0.000123726 -5.5295e-18
0.00853637 -0.000123689 -7.16567e-18
0.00939686 -0.000123714 -8.36097e-18
0.0102575 -0.000123807 -7.84346e-18
0.0111184 -0.000124005 -4.59338e-18
0.01198 -0.000124333 -1.38954e-18
0.012843 -0.000124656 1.9159e-18
0.0137083 -0.000124282 3.31388e-18
0.014575 -0.000120427 2.30512e-18
0.0154358 -0.000108294 -9.17323e-20
0.0162772 -8.93358e-05 -1.87973e-18
0.017 -7.76183e-05 -4.37207e-19
0 0 0
0.000780891 -0.000144532 4.00959e-18
0.00163812 -0.000224489 6.78493e-18
0.00250206 -0.000246272 7.00535e-18
0.00336765 -0.000250888 5.14569e-18
0.00423132 -0.000250257 2.00726e-18
0.00509341 -0.00024898 -1.09365e-18
0.00595458 -0.000248084 -3.70955e-18
0.0068153 -0.000247616 -5.37361e-18
0.00767586 -0.000247417 -7.66785e-18
0.00853635 -0.000247362 -8.92163e-18
0.00939685 -0.000247399 -9.95149e-18
0.0102574 -0.000247539 -9.33916e-18
0.0111181 -0.000247837 -6.28317e-18
0.011979 -0.000248332 -3.46071e-18
0.0128405 -0.000248851 -2.18407e-19
0.0137028 -0.000248318 1.99541e-18
0.0145653 -0.00024355 1.86849e-18
0.0154274 -0.000222521 8.67844e-19
0.016275 -0.000176507 -6.25363e-19
0.017 -0.000145794 -6.82136e-20
0 0 0
0.000859053 -0.000277419 1.55387e-18
0.00167759 -0.000346128 2.71797e-18
0.00251847 -0.00036968 3.02668e-18
0.00337353 -0.000374134 2.72187e-18
0.00423294 -0.000373746 1.87725e-18
0.00509362 -0.000372568 7.50256e-19
0.00595444 -0.000371722 2.52826e-19
0.00681516 -0.000371272 -6.55793e-19
0.00767578 -0.000371079 -9.8841e-19
0.00853634 -0.000371025 -1.73401e-18
0.00939689 -0.00037106 -1.58137e-18
0.0102575 -0.000371196 -1.47397e-18
0.0111181 -0.00037148 -2.47069e-19
0.0119787 -0.000371947 3.92062e-19
0.0128391 -0.000372389 1.15931e-18
0.0136983 -0.000371852 1.41982e-18
0.0145535 -0.000366595 1.08154e-18
0.0153993 -0.000348606 3.62796e-19
0.0162449 -0.000264854 6.87689e-20
0.017 -0.000197911 -7.26113e-19
0 0 0
0.000861864 0.000275441 -6.38142e-05
0.00168374 0.000343473 -0.000105567
0.00252529 0.000368155 -0.000122302
0.0033774 0.000373354 -0.000125716
0.00423477 0.000373455 -0.000125551
0.00509433 0.000372478 -0.000124763
0.00595467 0.000371706 -0.000124181