<?xml version="1.0"?>
<VTKFile type="UnstructuredGrid" version="0.1" byte_order="LittleEndian">
<UnstructuredGrid>
<Piece NumberOfPoints="1029" NumberOfCells="720">
<Points>
<DataArray type="Float32" NumberOfComponents="3" format="ascii">
0 0 0
0.005 0 0
0.01 0 0
0.015 0 0
0.02 0 0
0.025 0 0
0.03 0 0
0.035 0 0
0.04 0 0
0.045 0 0
0.05 0 0
0.055 0 0
0.06 0 0
0.065 0 0
0.07 0 0
0.075 0 0
0.08 0 0
0.085 0 0
0.09 0 0
0.095 0 0
0.1 0 0
0 0.005 0
0.005 0.005 0
0.01 0.005 0
0.015 0.005 0
0.02 0.005 0
0.025 0.005 0
0.03 0.005 0
0.035 0.005 0
0.04 0.005 0
0.045 0.005 0
0.05 0.005 0
0.055 0.005 0
0.06 0.005 0
0.065 0.005 0
0.07 0.005 0
0.075 0.005 0
0.08 0.005 0
0.085 0.005 0
0.09 0.005 0
0.095 0.005 0
0.1 0.005 0
0 0.01 0
0.005 0.01 0
0.01 0.01 0
0.015 0.01 0
0.02 0.01 0
0.025 0.01 0
0.03 0.01 0
0.035 0.01 0
0.04 0.01 0
0.045 0.01 0
0.05 0.01 0
0.055 0.01 0
0.06 0.01 0
0.065 0.01 0
0.07 0.01 0
0.075 0.01 0
0.08 0.01 0
0.085 0.01 0
0.09 0.01 0
0.095 0.01 0
0.1 0.01 0
0 0.015 0
0.005 0.015 0
0.01 0.015 0
0.015 0.015 0
0.02 0.015 0
0.025 0.015 0
0.03 0.015 0
0.035 0.015 0
0.04 0.015 0
0.045 0.015 0
0.05 0.015 0
0.055 0.015 0
0.06 0.015 0
0.065 0.015 0
0.07 0.015 0
0.075 0.015 0
0.08 0.015 0
0.085 0.015 0
0.09 0.015 0
0.095 0.015 0
0.1 0.015 0
0 0.02 0
0.005 0.02 0
0.01 0.02 0
0.015 0.02 0
0.02 0.02 0
0.025 0.02 0
0.03 0.02 0
0.035 0.02 0
0.04 0.02 0
0.045 0.02 0
0.05 0.02 0
0.055 0.02 0
0.06 0.02 0
0.065 0.02 0
0.07 0.02 0
0.075 0.02 0
0.08 0.02 0
0.085 0.02 0
0.09 0.02 0
0.095 0.02 0
0.1 0.02 0
0 0.025 0
0.005 0.025 0
0.01 0.025 0
0.015 0.025 0
0.02 0.025 0
0.025 0.025 0
0.03 0.025 0
0.035 0.025 0
0.04 0.025 0
0.045 0.025 0
0.05 0.025 0
0.055 0.025 0
0.06 0.025 0
0.065 0.025 0
0.07 0.025 0
0.075 0.025 0
0.08 0.025 0
0.085 0.025 0
0.09 0.025 0
0.095 0.025 0
0.1 0.025 0
0 0.03 0
0.005 0.03 0
0.01 0.03 0
0.015 0.03 0
0.02 0.03 0
0.025 0.03 0
0.03 0.03 0
0.035 0.03 0
0.04 0.03 0
0.045 0.03 0
0.05 0.03 0
0.055 0.03 0
0.06 0.03 0
0.065 0.03 0
0.07 0.03 0
0.075 0.03 0
0.08 0.03 0
0.085 0.03 0
0.09 0.03 0
0.095 0.03 0
0.1 0.03 0
0 0 0.005
0.005 0 0.005
0.01 0 0.005
0.015 0 0.005
0.02 0 0.005
0.025 0 0.005
0.03 0 0.005
0.035 0 0.005
0.04 0 0.005
0.045 0 0.005
0.05 0 0.005
0.055 0 0.005
0.06 0 0.005
0.065 0 0.005
0.07 0 0.005
0.075 0 0.005
0.08 0 0.005
0.085 0 0.005
0.09 0 0.005
0.095 0 0.005
0.1 0 0.005
0 0.005 0.005
0.005 0.005 0.005
0.01 0.005 0.005
0.015 0.005 0.005
0.02 0.005 0.005
0.025 0.005 0.005
0.03 0.005 0.005
0.035 0.005 0.005
0.04 0.005 0.005
0.045 0.005 0.005
0.05 0.005 0.005
0.055 0.005 0.005
0.06 0.005 0.005
0.065 0.005 0.005
0.07 0.005 0.005
0.075 0.005 0.005
0.08 0.005 0.005
0.085 0.005 0.005
0.09 0.005 0.005
0.095 0.005 0.005
0.1 0.005 0.005
0 0.01 0.005
0.005 0.01 0.005
0.01 0.01 0.005
0.015 0.01 0.005
0.02 0.01 0.005
0.025 0.01 0.005
0.03 0.01 0.005
0.035 0.01 0.005
0.04 0.01 0.005
0.045 0.01 0.005
0.05 0.01 0.005
0.055 0.01 0.005
0.06 0.01 0.005
0.065 0.01 0.005
0.07 0.01 0.005
0.075 0.01 0.005
0.08 0.01 0.005
0.085 0.01 0.005
0.09 0.01 0.005
0.095 0.01 0.005
0.1 0.01 0.005
0 0.015 0.005
0.005 0.015 0.005
0.01 0.015 0.005
0.015 0.015 0.005
0.02 0.015 0.005
0.025 0.015 0.005
0.03 0.015 0.005
0.035 0.015 0.005
0.04 0.015 0.005
0.045 0.015 0.005
0.05 0.015 0.005
0.055 0.015 0.005
0.06 0.015 0.005
0.065 0.015 0.005
0.07 0.015 0.005
0.075 0.015 0.005
0.08 0.015 0.005
0.085 0.015 0.005
0.09 0.015 0.005
0.095 0.015 0.005
0.1 0.015 0.005
0 0.02 0.005
0.005 0.02 0.005
0.01 0.02 0.005
0.015 0.02 0.005
0.02 0.02 0.005
0.025 0.02 0.005
0.03 0.02 0.005
0.035 0.02 0.005
0.04 0.02 0.005
0.045 0.02 0.005
0.05 0.02 0.005
0.055 0.02 0.005
0.06 0.02 0.005
0.065 0.02 0.005
0.07 0.02 0.005
0.075 0.02 0.005
0.08 0.02 0.005
0.085 0.02 0.005
0.09 0.02 0.005
0.095 0.02 0.005
0.1 0.02 0.005
0 0.025 0.005
0.005 0.025 0.005
0.01 0.025 0.005
0.015 0.025 0.005
0.02 0.025 0.005
0.025 0.025 0.005
0.03 0.025 0.005
0.035 0.025 0.005
0.04 0.025 0.005
0.045 0.025 0.005
0.05 0.025 0.005
0.055 0.025 0.005
0.06 0.025 0.005
0.065 0.025 0.005
0.07 0.025 0.005
0.075 0.025 0.005
0.08 0.025 0.005
0.085 0.025 0.005
0.09 0.025 0.005
0.095 0.025 0.005
0.1 0.025 0.005
0 0.03 0.005
0.005 0.03 0.005
0.01 0.03 0.005
0.015 0.03 0.005
0.02 0.03 0.005
0.025 0.03 0.005
0.03 0.03 0.005
0.035 0.03 0.005
0.04 0.03 0.005
0.045 0.03 0.005
0.05 0.03 0.005
0.055 0.03 0.005
0.06 0.03 0.005
0.065 0.03 0.005
0.07 0.03 0.005
0.075 0.03 0.005
0.08 0.03 0.005
0.085 0.03 0.005
0.09 0.03 0.005
0.095 0.03 0.005
0.1 0.03 0.005
0 0 0.01
0.005 0 0.01
0.01 0 0.01
0.015 0 0.01
0.02 0 0.01
0.025 0 0.01
0.03 0 0.01
0.035 0 0.01
0.04 0 0.01
0.045 0 0.01
0.05 0 0.01
0.055 0 0.01
0.06 0 0.01
0.065 0 0.01
0.07 0 0.01
0.075 0 0.01
0.08 0 0.01
0.085 0 0.01
0.09 0 0.01
0.095 0 0.01
0.1 0 0.01
0 0.005 0.01
0.005 0.005 0.01
0.01 0.005 0.01
0.015 0.005 0.01
0.02 0.005 0.01
0.025 0.005 0.01
0.03 0.005 0.01
0.035 0.005 0.01
0.04 0.005 0.01
0.045 0.005 0.01
0.05 0.005 0.01
0.055 0.005 0.01
0.06 0.005 0.01
0.065 0.005 0.01
0.07 0.005 0.01
0.075 0.005 0.01
0.08 0.005 0.01
0.085 0.005 0.01
0.09 0.005 0.01
0.095 0.005 0.01
0.1 0.005 0.01
0 0.01 0.01
0.005 0.01 0.01
0.01 0.01 0.01
0.015 0.01 0.01
0.02 0.01 0.01
0.025 0.01 0.01
0.03 0.01 0.01
0.035 0.01 0.01
0.04 0.01 0.01
0.045 0.01 0.01
0.05 0.01 0.01
0.055 0.01 0.01
0.06 0.01 0.01
0.065 0.01 0.01
0.07 0.01 0.01
0.075 0.01 0.01
0.08 0.01 0.01
0.085 0.01 0.01
0.09 0.01 0.01
0.095 0.01 0.01
0.1 0.01 0.01
0 0.015 0.01
0.005 0.015 0.01
0.01 0.015 0.01
0.015 0.015 0.01
0.02 0.015 0.01
0.025 0.015 0.01
0.03 0.015 0.01
0.035 0.015 0.01
0.04 0.015 0.01
0.045 0.015 0.01
0.05 0.015 0.01
0.055 0.015 0.01
0.06 0.015 0.01
0.065 0.015 0.01
0.07 0.015 0.01
0.075 0.015 0.01
0.08 0.015 0.01
0.085 0.015 0.01
0.09 0.015 0.01
0.095 0.015 0.01
0.1 0.015 0.01
0 0.02 0.01
0.005 0.02 0.01
0.01 0.02 0.01
0.015 0.02 0.01
0.02 0.02 0.01
0.025 0.02 0.01
0.03 0.02 0.01
0.035 0.02 0.01
0.04 0.02 0.01
0.045 0.02 0.01
0.05 0.02 0.01
0.055 0.02 0.01
0.06 0.02 0.01
0.065 0.02 0.01
0.07 0.02 0.01
0.075 0.02 0.01
0.08 0.02 0.01
0.085 0.02 0.01
0.09 0.02 0.01
0.095 0.02 0.01
0.1 0.02 0.01
0 0.025 0.01
0.005 0.025 0.01
0.01 0.025 0.01
0.015 0.025 0.01
0.02 0.025 0.01
0.025 0.025 0.01
0.03 0.025 0.01
0.035 0.025 0.01
0.04 0.025 0.01
0.045 0.025 0.01
0.05 0.025 0.01
0.055 0.025 0.01
0.06 0.025 0.01
0.065 0.025 0.01
0.07 0.025 0.01
0.075 0.025 0.01
0.08 0.025 0.01
0.085 0.025 0.01
0.09 0.025 0.01
0.095 0.025 0.01
0.1 0.025 0.01
0 0.03 0.01
0.005 0.03 0.01
0.01 0.03 0.01
0.015 0.03 0.01
0.02 0.03 0.01
0.025 0.03 0.01
0.03 0.03 0.01
0.035 0.03 0.01
0.04 0.03 0.01
0.045 0.03 0.01
0.05 0.03 0.01
0.055 0.03 0.01
0.06 0.03 0.01
0.065 0.03 0.01
0.07 0.03 0.01
0.075 0.03 0.01
0.08 0.03 0.01
0.085 0.03 0.01
0.09 0.03 0.01
0.095 0.03 0.01
0.1 0.03 0.01
0 0 0.015
0.005 0 0.015
0.01 0 0.015
0.015 0 0.015
0.02 0 0.015
0.025 0 0.015
0.03 0 0.015
0.035 0 0.015
0.04 0 0.015
0.045 0 0.015
0.05 0 0.015
0.055 0 0.015
0.06 0 0.015
0.065 0 0.015
0.07 0 0.015
0.075 0 0.015
0.08 0 0.015
0.085 0 0.015
0.09 0 0.015
0.095 0 0.015
0.1 0 0.015
0 0.005 0.015
0.005 0.005 0.015
0.01 0.005 0.015
0.015 0.005 0.015
0.02 0.005 0.015
0.025 0.005 0.015
0.03 0.005 0.015
0.035 0.005 0.015
0.04 0.005 0.015
0.045 0.005 0.015
0.05 0.005 0.015
0.055 0.005 0.015
0.06 0.005 0.015
0.065 0.005 0.015
0.07 0.005 0.015
0.075 0.005 0.015
0.08 0.005 0.015
0.085 0.005 0.015
0.09 0.005 0.015
0.095 0.005 0.015
0.1 0.005 0.015
0 0.01 0.015
0.005 0.01 0.015
0.01 0.01 0.015
0.015 0.01 0.015
0.02 0.01 0.015
0.025 0.01 0.015
0.03 0.01 0.015
0.035 0.01 0.015
0.04 0.01 0.015
0.045 0.01 0.015
0.05 0.01 0.015
0.055 0.01 0.015
0.06 0.01 0.015
0.065 0.01 0.015
0.07 0.01 0.015
0.075 0.01 0.015
0.08 0.01 0.015
0.085 0.01 0.015
0.09 0.01 0.015
0.095 0.01 0.015
0.1 0.01 0.015
0 0.015 0.015
0.005 0.015 0.015
0.01 0.015 0.015
0.015 0.015 0.015
0.02 0.015 0.015
0.025 0.015 0.015
0.03 0.015 0.015
0.035 0.015 0.015
0.04 0.015 0.015
0.045 0.015 0.015
0.05 0.015 0.015
0.055 0.015 0.015
0.06 0.015 0.015
0.065 0.015 0.015
0.07 0.015 0.015
0.075 0.015 0.015
0.08 0.015 0.015
0.085 0.015 0.015
0.09 0.015 0.015
0.095 0.015 0.015
0.1 0.015 0.015
0 0.02 0.015
0.005 0.02 0.015
0.01 0.02 0.015
0.015 0.02 0.015
0.02 0.02 0.015
0.025 0.02 0.015
0.03 0.02 0.015
0.035 0.02 0.015
0.04 0.02 0.015
0.045 0.02 0.015
0.05 0.02 0.015
0.055 0.02 0.015
0.06 0.02 0.015
0.065 0.02 0.015
0.07 0.02 0.015
0.075 0.02 0.015
0.08 0.02 0.015
0.085 0.02 0.015
0.09 0.02 0.015
0.095 0.02 0.015
0.1 0.02 0.015
0 0.025 0.015
0.005 0.025 0.015
0.01 0.025 0.015
0.015 0.025 0.015
0.02 0.025 0.015
0.025 0.025 0.015
0.03 0.025 0.015
0.035 0.025 0.015
0.04 0.025 0.015
0.045 0.025 0.015
0.05 0.025 0.015
0.055 0.025 0.015
0.06 0.025 0.015
0.065 0.025 0.015
0.07 0.025 0.015
0.075 0.025 0.015
0.08 0.025 0.015
0.085 0.025 0.015
0.09 0.025 0.015
0.095 0.025 0.015
0.1 0.025 0.015
0 0.03 0.015
0.005 0.03 0.015
0.01 0.03 0.015
0.015 0.03 0.015
0.02 0.03 0.015
0.025 0.03 0.015
0.03 0.03 0.015
0.035 0.03 0.015
0.04 0.03 0.015
0.045 0.03 0.015
0.05 0.03 0.015
0.055 0.03 0.015
0.06 0.03 0.015
0.065 0.03 0.015
0.07 0.03 0.015
0.075 0.03 0.015
0.08 0.03 0.015
0.085 0.03 0.015
0.09 0.03 0.015
0.095 0.03 0.015
0.1 0.03 0.015
0 0 0.02
0.005 0 0.02
0.01 0 0.02
0.015 0 0.02
0.02 0 0.02
0.025 0 0.02
0.03 0 0.02
0.035 0 0.02
0.04 0 0.02
0.045 0 0.02
0.05 0 0.02
0.055 0 0.02
0.06 0 0.02
0.065 0 0.02
0.07 0 0.02
0.075 0 0.02
0.08 0 0.02
0.085 0 0.02
0.09 0 0.02
0.095 0 0.02
0.1 0 0.02
0 0.005 0.02
0.005 0.005 0.02
0.01 0.005 0.02
0.015 0.005 0.02
0.02 0.005 0.02
0.025 0.005 0.02
0.03 0.005 0.02
0.035 0.005 0.02
0.04 0.005 0.02
0.045 0.005 0.02
0.05 0.005 0.02
0.055 0.005 0.02
0.06 0.005 0.02
0.065 0.005 0.02
0.07 0.005 0.02
0.075 0.005 0.02
0.08 0.005 0.02
0.085 0.005 0.02
0.09 0.005 0.02
0.095 0.005 0.02
0.1 0.005 0.02
0 0.01 0.02
0.005 0.01 0.02
0.01 0.01 0.02
0.015 0.01 0.02
0.02 0.01 0.02
0.025 0.01 0.02
0.03 0.01 0.02
0.035 0.01 0.02
0.04 0.01 0.02
0.045 0.01 0.02
0.05 0.01 0.02
0.055 0.01 0.02
0.06 0.01 0.02
0.065 0.01 0.02
0.07 0.01 0.02
0.075 0.01 0.02
0.08 0.01 0.02
0.085 0.01 0.02
0.09 0.01 0.02
0.095 0.01 0.02
[...]
<PointData Vectors="Displacement">
<DataArray type="Float32" Name="Displacement" NumberOfComponents="3" format="ascii">
0 0 0
0.00146496 0.000428406 0.000428406
0.00273411 0.000522501 0.000522501
0.00402373 0.00056535 0.00056535
0.00534743 0.000576023 0.000576023
0.00669233 0.000578063 0.000578063
0.00804796 0.00057761 0.00057761
0.00940803 0.000576982 0.000576982
0.0107697 0.000576585 0.000576585
0.0121318 0.000576397 0.000576397
0.0134939 0.00057633 0.00057633
0.014856 0.000576331 0.000576331
0.0162181 0.000576387 0.000576387
0.0175799 0.0005765 0.0005765
0.0189412 0.000576634 0.000576634
0.0203009 0.000576528 0.000576528
0.0216574 0.000575382 0.000575382
0.0230081 0.000570236 0.000570236
0.0243513 0.000557348 0.000557348
0.0257043 0.000502462 0.000502462
0.027 0.000460686 0.000460686
0 0 0
0.00135718 0.00022959 0.000433707
0.00267941 0.000346692 0.000530449
0.00399966 0.000378775 0.000567565
0.00533843 0.000386848 0.000576921
0.00668955 0.000386936 0.000578259
0.00804736 0.00038581 0.000577629
0.00940804 0.000384939 0.000576961
0.0107698 0.000384482 0.000576566
0.0121318 0.000384286 0.000576386
0.0134939 0.000384224 0.000576324
0.014856 0.00038423 0.000576327
0.0162181 0.000384294 0.000576382
0.01758 0.000384437 0.000576498
0.0189415 0.000384661 0.000576654
0.020302 0.000384821 0.000576635
0.0216606 0.00038412 0.000575696
0.0230159 0.00038042 0.000571259
0.024369 0.000365819 0.000559412
0.0257229 0.000334192 0.000500511
0.027 0.000314005 0.000453771
0 0 0
0.00134049 0.000104461 0.000452013
0.00264062 0.000167748 0.000542305
0.0039753 0.000190654 0.00057364
0.00532635 0.000194636 0.000579013
0.00668466 0.000194246 0.000578859
0.00804569 0.000193262 0.00057772
0.0094076 0.000192611 0.000576933
0.0107697 0.000192287 0.000576531
0.0121318 0.000192155 0.000576363
0.013494 0.000192114 0.00057631
0.014856 0.00019212 0.000576317
0.0162181 0.000192165 0.000576374
0.0175802 0.000192269 0.000576502
0.0189422 0.000192449 0.00057672
0.0203037 0.000192624 0.000576904
0.0216643 0.000192353 0.000576522
0.0230224 0.000189752 0.000573052
0.0243743 0.000181134 0.000561756
0.025724 0.000167253 0.000497445
0.027 0.000159136 0.000444595
0 0 0
0.00133629 -2.26626e-20 0.000457305
0.00263098 6.40097e-20 0.00054829
0.00396533 2.83146e-19 0.000576332
0.00532115 4.70961e-19 0.000580123
0.00668236 2.77538e-19 0.000579172
0.00804485 4.47391e-19 0.00057778
0.00940735 5.14547e-19 0.000576925
0.0107697 4.86227e-19 0.000576515
0.0121318 -2.27319e-20 0.000576352
0.013494 4.7306e-19 0.000576304
0.0148561 3.27032e-19 0.000576312
0.0162182 -2.62867e-19 0.00057637
0.0175803 4.0878e-20 0.000576507
0.0189425 4.56795e-19 0.000576757
0.0203045 1.30321e-19 0.000577048
0.0216659 6.82465e-19 0.000576905
0.0230244 1.17244e-18 0.000573868
0.0243752 1.46182e-18 0.0005623
0.0257237 1.69153e-18 0.000496073
0.027 2.55622e-18 0.000441598
0 0 0
0.00134049 -0.000104461 0.000452013
0.00264062 -0.000167748 0.000542305
0.0039753 -0.000190654 0.00057364
0.00532635 -0.000194636 0.000579013
0.00668466 -0.000194246 0.000578859
0.00804569 -0.000193262 0.00057772
0.0094076 -0.000192611 0.000576933
0.0107697 -0.000192287 0.000576531
0.0121318 -0.000192155 0.000576363
0.013494 -0.000192114 0.00057631
0.014856 -0.00019212 0.000576317
0.0162181 -0.000192165 0.000576374
0.0175802 -0.000192269 0.000576502
0.0189422 -0.000192449 0.00057672
0.0203037 -0.000192624 0.000576904
0.0216643 -0.000192353 0.000576522
0.0230224 -0.000189752 0.000573052
0.0243743 -0.000181134 0.000561756
0.025724 -0.000167253 0.000497445
0.027 -0.000159136 0.000444595
0 0 0
0.00135718 -0.00022959 0.000433707
0.00267941 -0.000346692 0.000530449
0.00399966 -0.000378775 0.000567565
0.00533843 -0.000386848 0.000576921
0.00668955 -0.000386936 0.000578259
0.00804736 -0.00038581 0.000577629
0.00940804 -0.000384939 0.000576961
0.0107698 -0.000384482 0.000576566
0.0121318 -0.000384286 0.000576386
0.0134939 -0.000384224 0.000576324
0.014856 -0.00038423 0.000576327
0.0162181 -0.000384294 0.000576382
0.01758 -0.000384437 0.000576498
0.0189415 -0.000384661 0.000576654
0.020302 -0.000384821 0.000576635
0.0216606 -0.00038412 0.000575696
0.0230159 -0.00038042 0.000571259
0.024369 -0.000365819 0.000559412
0.0257229 -0.000334192 0.000500511
0.027 -0.000314005 0.000453771
0 0 0
0.00146496 -0.000428406 0.000428406
0.00273411 -0.000522501 0.000522501
0.00402373 -0.00056535 0.00056535
0.00534743 -0.000576023 0.000576023
0.00669233 -0.000578063 0.000578063
0.00804796 -0.00057761 0.00057761
0.00940803 -0.000576982 0.000576982
0.0107697 -0.000576585 0.000576585
0.0121318 -0.000576397 0.000576397
0.0134939 -0.00057633 0.00057633
0.014856 -0.000576331 0.000576331
0.0162181 -0.000576387 0.000576387
0.0175799 -0.0005765 0.0005765
0.0189412 -0.000576634 0.000576634
0.0203009 -0.000576528 0.000576528
0.0216574 -0.000575382 0.000575382
0.0230081 -0.000570236 0.000570236
0.0243513 -0.000557348 0.000557348
0.0257043 -0.000502462 0.000502462
0.027 -0.000460686 0.000460686
0 0 0
0.00135718 0.000433707 0.00022959
0.00267941 0.000530449 0.000346692
0.00399966 0.000567565 0.000378775
0.00533843 0.000576921 0.000386848
0.00668955 0.000578259 0.000386936
0.00804736 0.000577629 0.00038581
0.00940804 0.000576961 0.000384939
0.0107698 0.000576566 0.000384482
0.0121318 0.000576386 0.000384286
0.0134939 0.000576324 0.000384224
0.014856 0.000576327 0.00038423
0.0162181 0.000576382 0.000384294
0.01758 0.000576498 0.000384437
0.0189415 0.000576654 0.000384661
0.020302 0.000576635 0.000384821
0.0216606 0.000575696 0.00038412
0.0230159 0.000571259 0.00038042
0.024369 0.000559412 0.000365819
0.0257229 0.000500511 0.000334192
0.027 0.000453771 0.000314005
0 0 0
0.00124544 0.000228116 0.000228116
0.00262606 0.00034631 0.00034631
0.00397756 0.00037845 0.00037845
0.00533024 0.000386609 0.000386609
0.00668711 0.000386846 0.000386846
0.00804688 0.000385775 0.000385775
0.00940808 0.00038493 0.00038493
0.0107699 0.000384481 0.000384481
0.0121319 0.000384287 0.000384287
0.013494 0.000384224 0.000384224
0.014856 0.00038423 0.00038423
0.0162181 0.000384294 0.000384294
0.01758 0.000384433 0.000384433
0.0189418 0.000384649 0.000384649
0.0203031 0.000384792 0.000384792
0.0216636 0.000384071 0.000384071
0.0230235 0.000380442 0.000380442
0.0243876 0.00036588 0.00036588
0.0257431 0.000333884 0.000333884
0.027 0.000312951 0.000312951
0 0 0
0.00122808 0.000101196 0.000236245
0.00258827 0.000165194 0.000353939
0.00395461 0.000189286 0.000382211
0.00531914 0.000194053 0.000387986
0.00668263 0.000194043 0.000387216
0.00804536 0.000193211 0.000385828
0.00940768 0.000192606 0.000384909
0.0107698 0.000192292 0.000384457
0.0121319 0.000192159 0.000384272
0.013494 0.000192117 0.000384216
0.014856 0.000192122 0.000384224
0.0162181 0.000192166 0.000384288
0.0175802 0.000192264 0.000384435
0.0189424 0.000192425 0.000384691
0.0203046 0.000192547 0.000384971
0.0216671 0.000192172 0.000384605
0.02303 0.000189428 0.000381588
0.0243937 0.000180893 0.000366837
0.0257453 0.000167582 0.000331777
0.027 0.000159722 0.000307905
0 0 0
0.00122318 -2.35672e-20 0.000239868
0.00257904 5.9561e-20 0.000357619
0.00394533 2.12379e-19 0.00038424
0.00531433 2.58232e-19 0.000388771
0.00668052 3.32658e-19 0.000387451
0.00804458 5.03921e-19 0.00038587
0.00940744 5.90544e-19 0.000384903
0.0107698 3.33289e-19 0.000384446
0.0121319 6.79118e-20 0.000384265
0.013494 4.54599e-19 0.000384211
0.0148561 2.03556e-19 0.00038422
0.0162181 -1.16131e-19 0.000384285
0.0175803 4.00685e-19 0.000384438
0.0189427 3.64239e-19 0.000384719
0.0203053 4.51526e-19 0.000385076
0.0216686 6.84595e-19 0.000384895
0.0230319 1.27999e-18 0.000382112
0.0243949 1.46973e-18 0.0003671
0.0257454 1.57829e-18 0.000330813
0.027 1.39744e-18 0.000305942
0 0 0
0.00122808 -0.000101196 0.000236245
0.00258827 -0.000165194 0.000353939
0.00395461 -0.000189286 0.000382211
0.00531914 -0.000194053 0.000387986
0.00668263 -0.000194043 0.000387216
0.00804536 -0.000193211 0.000385828
0.00940768 -0.000192606 0.000384909
0.0107698 -0.000192292 0.000384457
0.0121319 -0.000192159 0.000384272
0.013494 -0.000192117 0.000384216
0.014856 -0.000192122 0.000384224
0.0162181 -0.000192166 0.000384288
0.0175802 -0.000192264 0.000384435
0.0189424 -0.000192425 0.000384691
0.0203046 -0.000192547 0.000384971
0.0216671 -0.000192172 0.000384605
0.02303 -0.000189428 0.000381588
0.0243937 -0.000180893 0.000366837
0.0257453 -0.000167582 0.000331777
0.027 -0.000159722 0.000307905
0 0 0
0.00124544 -0.000228116 0.000228116
0.00262606 -0.00034631 0.00034631
0.00397756 -0.00037845 0.00037845
0.00533024 -0.000386609 0.000386609
0.00668711 -0.000386846 0.000386846
0.00804688 -0.000385775 0.000385775
0.00940808 -0.00038493 0.00038493
0.0107699 -0.000384481 0.000384481
0.0121319 -0.000384287 0.000384287
0.013494 -0.000384224 0.000384224
0.014856 -0.00038423 0.00038423
0.0162181 -0.000384294 0.000384294
0.01758 -0.000384433 0.000384433
0.0189418 -0.000384649 0.000384649
0.0203031 -0.000384792 0.000384792
0.0216636 -0.000384071 0.000384071
0.0230235 -0.000380442 0.000380442
0.0243876 -0.00036588 0.00036588
0.0257431 -0.000333884 0.000333884
0.027 -0.000312951 0.000312951
0 0 0
0.00135718 -0.000433707 0.00022959
0.00267941 -0.000530449 0.000346692
0.00399966 -0.000567565 0.000378775
0.00533843 -0.000576921 0.000386848
0.00668955 -0.000578259 0.000386936
0.00804736 -0.000577629 0.00038581
0.00940804 -0.000576961 0.000384939
0.0107698 -0.000576566 0.000384482
0.0121318 -0.000576386 0.000384286
0.0134939 -0.000576324 0.000384224
0.014856 -0.000576327 0.00038423
0.0162181 -0.000576382 0.000384294
0.01758 -0.000576498 0.000384437
0.0189415 -0.000576654 0.000384661
0.020302 -0.000576635 0.000384821
0.0216606 -0.000575696 0.00038412
0.0230159 -0.000571259 0.00038042
0.024369 -0.000559412 0.000365819
0.0257229 -0.000500511 0.000334192
0.027 -0.000453771 0.000314005
0 0 0
0.00134049 0.000452013 0.000104461
0.00264062 0.000542305 0.000167748
0.0039753 0.00057364 0.000190654
0.00532635 0.000579013 0.000194636
0.00668466 0.000578859 0.000194246
0.00804569 0.00057772 0.000193262
0.0094076 0.000576933 0.000192611
0.0107697 0.000576531 0.000192287
0.0121318 0.000576363 0.000192155
0.013494 0.00057631 0.000192114
0.014856 0.000576317 0.00019212
0.0162181 0.000576374 0.000192165
0.0175802 0.000576502 0.000192269
0.0189422 0.00057672 0.000192449
0.0203037 0.000576904 0.000192624
0.0216643 0.000576522 0.000192353
0.0230224 0.000573052 0.000189752
0.0243743 0.000561756 0.000181134
0.025724 0.000497445 0.000167253
0.027 0.000444595 0.000159136
0 0 0
0.00122808 0.000236245 0.000101196
0.00258827 0.000353939 0.000165194
0.00395461 0.000382211 0.000189286
0.00531914 0.000387986 0.000194053
0.00668263 0.000387216 0.000194043
0.00804536 0.000385828 0.000193211
0.00940768 0.000384909 0.000192606
0.0107698 0.000384457 0.000192292
0.0121319 0.000384272 0.000192159
0.013494 0.000384216 0.000192117
0.014856 0.000384224 0.000192122
0.0162181 0.000384288 0.000192166
0.0175802 0.000384435 0.000192264
0.0189424 0.000384691 0.000192425
0.0203046 0.000384971 0.000192547
0.0216671 0.000384605 0.000192172
0.02303 0.000381588 0.000189428
0.0243937 0.000366837 0.000180893
0.0257453 0.000331777 0.000167582
0.027 0.000307905 0.000159722
0 0 0
0.00121185 0.00010444 0.00010444
0.00254935 0.000168235 0.000168235
0.00393141 0.000190992 0.000190992
0.00530815 0.000194678 0.000194678
0.00667832 0.000194209 0.000194209
0.00804392 0.000193231 0.000193231
0.00940731 0.000192595 0.000192595
0.0107698 0.000192281 0.000192281
0.0121319 0.000192153 0.000192153
0.013494 0.000192113 0.000192113
0.0148561 0.000192119 0.000192119
0.0162182 0.000192163 0.000192163
0.0175804 0.000192265 0.000192265
0.0189429 0.000192444 0.000192444
0.0203062 0.000192631 0.000192631
0.0216707 0.000192424 0.000192424
0.0230368 0.000189888 0.000189888
0.0243998 0.000181148 0.000181148
0.0257467 0.000166677 0.000166677
0.027 0.000157718 0.000157718
0 0 0
0.00120728 3.46295e-20 0.000105964
0.00253997 -2.40444e-20 0.000169889
0.00392188 2.9727e-19 0.000191958
0.00530337 4.43652e-19 0.000195074
0.00667626 3.68725e-19 0.000194325
0.00804318 5.5207e-19 0.000193252
0.00940709 4.65493e-19 0.000192592
0.0107697 3.16708e-19 0.000192275
0.0121319 8.7108e-20 0.000192149
0.013494 4.74582e-19 0.000192111
0.0148561 2.46697e-19 0.000192117
0.0162182 -3.56129e-20 0.000192162
0.0175805 4.83498e-19 0.000192266
0.0189432 5.81277e-19 0.000192458
0.0203069 6.13696e-19 0.000192685
0.0216722 5.69235e-19 0.000192565
0.0230388 1.34966e-18 0.000190117
0.0244009 1.46527e-18 0.000181227
0.0257466 1.46722e-18 0.000166222
0.027 9.61158e-19 0.000156822
0 0 0
0.00121185 -0.00010444 0.00010444
0.00254935 -0.000168235 0.000168235
0.00393141 -0.000190992 0.000190992
0.00530815 -0.000194678 0.000194678
0.00667832 -0.000194209 0.000194209
0.00804392 -0.000193231 0.000193231
0.00940731 -0.000192595 0.000192595
0.0107698 -0.000192281 0.000192281
0.0121319 -0.000192153 0.000192153
0.013494 -0.000192113 0.000192113
0.0148561 -0.000192119 0.000192119
0.0162182 -0.000192163 0.000192163
0.0175804 -0.000192265 0.000192265
0.0189429 -0.000192444 0.000192444
0.0203062 -0.000192631 0.000192631
0.0216707 -0.000192424 0.000192424
0.0230368 -0.000189888 0.000189888
0.0243998 -0.000181148 0.000181148
0.0257467 -0.000166677 0.000166677
0.027 -0.000157718 0.000157718
0 0 0
0.00122808 -0.000236245 0.000101196
0.00258827 -0.000353939 0.000165194
0.00395461 -0.000382211 0.000189286
0.00531914 -0.000387986 0.000194053
0.00668263 -0.000387216 0.000194043
0.00804536 -0.000385828 0.000193211
0.00940768 -0.000384909 0.000192606
0.0107698 -0.000384457 0.000192292
0.0121319 -0.000384272 0.000192159
0.013494 -0.000384216 0.000192117
0.014856 -0.000384224 0.000192122
0.0162181 -0.000384288 0.000192166
0.0175802 -0.000384435 0.000192264
0.0189424 -0.000384691 0.000192425
0.0203046 -0.000384971 0.000192547
0.0216671 -0.000384605 0.000192172
0.02303 -0.000381588 0.000189428
0.0243937 -0.000366837 0.000180893
0.0257453 -0.000331777 0.000167582
0.027 -0.000307905 0.000159722
0 0 0
0.00134049 -0.000452013 0.000104461
0.00264062 -0.000542305 0.000167748
0.0039753 -0.00057364 0.000190654
0.00532635 -0.000579013 0.000194636
0.00668466 -0.000578859 0.000194246
0.00804569 -0.00057772 0.000193262
0.0094076 -0.000576933 0.000192611
0.0107697 -0.000576531 0.000192287
0.0121318 -0.000576363 0.000192155
0.013494 -0.00057631 0.000192114
0.014856 -0.000576317 0.00019212
0.0162181 -0.000576374 0.000192165
0.0175802 -0.000576502 0.000192269
0.0189422 -0.00057672 0.000192449
0.0203037 -0.000576904 0.000192624
0.0216643 -0.000576522 0.000192353
0.0230224 -0.000573052 0.000189752
0.0243743 -0.000561756 0.000181134
0.025724 -0.000497445 0.000167253
0.027 -0.000444595 0.000159136
0 0 0
0.00133629 0.000457305 1.79845e-19
0.00263098 0.00054829 3.93826e-19
0.00396533 0.000576332 8.20715e-19
0.00532115 0.000580123 7.67416e-19
0.00668236 0.000579172 1.20853e-18
0.00804485 0.00057778 1.12683e-18
0.00940735 0.000576925 1.80032e-18
0.0107697 0.000576515 1.90717e-18
0.0121318 0.000576352 2.10413e-18
0.013494 0.000576304 3.01016e-18
0.0148561 0.000576312 3.04198e-18
0.0162182 0.00057637 3.34512e-18
0.0175803 0.000576507 4.37468e-18
0.0189425 0.000576757 2.97412e-18
0.0203045 0.000577048 3.56284e-18
0.0216659 0.000576905 4.20192e-18
0.0230244 0.000573868 4.04199e-18
0.0243752 0.0005623 4.35554e-18
0.0257237 0.000496073 3.69272e-18
0.027 0.000441598 4.87119e-18
0 0 0
0.00122318 0.000239868 2.32293e-19
0.00257904 0.000357619 3.30588e-19
0.00394533 0.00038424 6.85064e-19
0.00531433 0.000388771 8.61666e-19
0.00668052 0.000387451 9.44865e-19
0.00804458 0.00038587 1.29969e-18
0.00940744 0.000384903 1.65915e-18
0.0107698 0.000384446 1.99338e-18
0.0121319 0.000384265 2.1782e-18
0.013494 0.000384211 2.80911e-18
0.0148561 0.00038422 3.03239e-18
0.0162181 0.000384285 3.22066e-18
0.0175803 0.000384438 4.18971e-18
0.0189427 0.000384719 3.20793e-18
0.0203053 0.000385076 3.67842e-18
0.0216686 0.000384895 4.41917e-18
0.0230319 0.000382112 4.16883e-18
0.0243949 0.0003671 4.20247e-18
0.0257454 0.000330813 4.00491e-18
0.027 0.000305942 4.07921e-18
0 0 0
0.00120728 0.000105964 1.86449e-19
0.00253997 0.000169889 2.97265e-19
0.00392188 0.000191958 6.96075e-19
0.00530337 0.000195074 8.29576e-19
0.00667626 0.000194325 1.07319e-18
0.00804318 0.000193252 1.25479e-18
0.00940709 0.000192592 1.44924e-18
0.0107697 0.000192275 1.91563e-18
0.0121319 0.000192149 2.36145e-18
0.013494 0.000192111 2.62277e-18
0.0148561 0.000192117 2.99744e-18
0.0162182 0.000192162 2.95703e-18
0.0175805 0.000192266 3.87903e-18
0.0189432 0.000192458 3.25153e-18
0.0203069 0.000192685 3.7464e-18
0.0216722 0.000192565 4.67207e-18
0.0230388 0.000190117 4.38153e-18
0.0244009 0.000181227 4.06901e-18
0.0257466 0.000166222 3.65386e-18
0.027 0.000156822 4.73574e-18
0 0 0
0.00120277 9.07307e-20 3.77638e-20
0.00253051 1.56707e-19 3.58554e-19
0.00391222 2.0186e-19 5.87631e-19
0.00529854 3.53804e-19 8.70369e-19
0.0066742 3.54374e-19 9.31324e-19
0.00804245 6.10566e-19 1.18702e-18
0.00940688 3.23415e-19 1.58057e-18
0.0107697 2.02399e-19 1.98198e-18
0.0121319 -1.56724e-19 1.99468e-18
0.013494 4.18011e-19 2.87158e-18
0.0148561 2.72199e-19 2.59974e-18
0.0162182 3.19234e-20 2.80982e-18
0.0175806 4.53014e-19 3.96668e-18
0.0189435 7.09507e-19 3.1498e-18
0.0203076 7.18079e-19 3.71329e-18
0.0216738 5.19497e-19 4.67068e-18
0.0230409 1.11621e-18 4.24529e-18
0.024402 1.2943e-18 4.00426e-18
0.0257464 1.6637e-18 4.19355e-18
0.027 1.4886e-18 4.13342e-18
0 0 0
0.00120728 -0.000105964 1.62358e-19
0.00253997 -0.000169889 4.23554e-19
0.00392188 -0.000191958 5.44978e-19
0.00530337 -0.000195074 9.81043e-19
0.00667626 -0.000194325 8.15549e-19
0.00804318 -0.000193252 1.02815e-18
0.00940709 -0.000192592 1.58349e-18
0.0107697 -0.000192275 1.55879e-18
0.0121319 -0.000192149 2.31505e-18
0.013494 -0.000192111 2.50613e-18
0.0148561 -0.000192117 2.81603e-18
0.0162182 -0.000192162 2.64077e-18
0.0175805 -0.000192266 3.64161e-18
0.0189432 -0.000192458 3.10829e-18
0.0203069 -0.000192685 3.66582e-18
0.0216722 -0.000192565 4.3732e-18
0.0230388 -0.000190117 4.29291e-18
0.0244009 -0.000181227 4.49229e-18
0.0257466 -0.000166222 4.00184e-18
0.027 -0.000156822 3.86922e-18
0 0 0
0.00122318 -0.000239868 1.7286e-19
0.00257904 -0.000357619 2.64187e-19
0.00394533 -0.00038424 4.19783e-19
0.00531433 -0.000388771 5.55047e-19
0.00668052 -0.000387451 5.39104e-19
0.00804458 -0.00038587 8.75067e-19
0.00940744 -0.000384903 1.42854e-18
0.0107698 -0.000384446 1.57297e-18
0.0121319 -0.000384265 2.08998e-18
0.013494 -0.000384211 2.44702e-18
0.0148561 -0.00038422 2.52609e-18
0.0162181 -0.000384285 2.39151e-18
0.0175803 -0.000384438 3.62627e-18
0.0189427 -0.000384719 2.60951e-18
0.0203053 -0.000385076 3.44959e-18
0.0216686 -0.000384895 4.49846e-18
0.0230319 -0.000382112 4.22157e-18
0.0243949 -0.0003671 3.93803e-18
0.0257454 -0.000330813 3.89434e-18
0.027 -0.000305942 3.9714e-18
0 0 0
0.00133629 -0.000457305 3.99961e-20
0.00263098 -0.00054829 1.99985e-19
0.00396533 -0.000576332 4.92576e-19
0.00532115 -0.000580123 7.42797e-19
0.00668236 -0.000579172 4.42464e-19
0.00804485 -0.00057778 9.21178e-19
0.00940735 -0.000576925 1.52013e-18
0.0107697 -0.000576515 1.76678e-18
0.0121318 -0.000576352 2.1311e-18
0.013494 -0.000576304 2.44962e-18
0.0148561 -0.000576312 2.28545e-18
0.0162182 -0.00057637 2.48687e-18
0.0175803 -0.000576507 3.27142e-18
0.0189425 -0.000576757 2.56827e-18
0.0203045 -0.000577048 3.52078e-18
0.0216659 -0.000576905 4.5353e-18
0.0230244 -0.000573868 4.50975e-18
0.0243752 -0.0005623 3.77414e-18
0.0257237 -0.000496073 4.34307e-18
0.027 -0.000441598 3.1202e-18
0 0 0
0.00134049 0.000452013 -0.000104461
0.00264062 0.000542305 -0.000167748
0.0039753 0.00057364 -0.000190654
0.00532635 0.000579013 -0.000194636
0.00668466 0.000578859 -0.000194246
0.00804569 0.00057772 -0.000193262
0.0094076 0.000576933 -0.000192611
0.0107697 0.000576531 -0.000192287
0.0121318 0.000576363 -0.000192155
0.013494 0.00057631 -0.000192114
0.014856 0.000576317 -0.00019212
0.0162181 0.000576374 -0.000192165
0.0175802 0.000576502 -0.000192269
0.0189422 0.00057672 -0.000192449
0.0203037 0.000576904 -0.000192624