<?xml version="1.0"?>
<VTKFile type="UnstructuredGrid" version="0.1" byte_order="LittleEndian">
<UnstructuredGrid>
<Piece NumberOfPoints="1029" NumberOfCells="720">
<Points>
<DataArray type="Float32" NumberOfComponents="3" format="ascii">
0 0 0
0.005 0 0
0.01 0 0
0.015 0 0
0.02 0 0
0.025 0 0
0.03 0 0
0.035 0 0
0.04 0 0
0.045 0 0
0.05 0 0
0.055 0 0
0.06 0 0
0.065 0 0
0.07 0 0
0.075 0 0
0.08 0 0
0.085 0 0
0.09 0 0
0.095 0 0
0.1 0 0
0 0.005 0
0.005 0.005 0
0.01 0.005 0
0.015 0.005 0
0.02 0.005 0
0.025 0.005 0
0.03 0.005 0
0.035 0.005 0
0.04 0.005 0
0.045 0.005 0
0.05 0.005 0
0.055 0.005 0
0.06 0.005 0
0.065 0.005 0
0.07 0.005 0
0.075 0.005 0
0.08 0.005 0
0.085 0.005 0
0.09 0.005 0
0.095 0.005 0
0.1 0.005 0
0 0.01 0
0.005 0.01 0
0.01 0.01 0
0.015 0.01 0
0.02 0.01 0
0.025 0.01 0
0.03 0.01 0
0.035 0.01 0
0.04 0.01 0
0.045 0.01 0
0.05 0.01 0
0.055 0.01 0
0.06 0.01 0
0.065 0.01 0
0.07 0.01 0
0.075 0.01 0
0.08 0.01 0
0.085 0.01 0
0.09 0.01 0
0.095 0.01 0
0.1 0.01 0
0 0.015 0
0.005 0.015 0
0.01 0.015 0
0.015 0.015 0
0.02 0.015 0
0.025 0.015 0
0.03 0.015 0
0.035 0.015 0
0.04 0.015 0
0.045 0.015 0
0.05 0.015 0
0.055 0.015 0
0.06 0.015 0
0.065 0.015 0
0.07 0.015 0
0.075 0.015 0
0.08 0.015 0
0.085 0.015 0
0.09 0.015 0
0.095 0.015 0
0.1 0.015 0
0 0.02 0
0.005 0.02 0
0.01 0.02 0
0.015 0.02 0
0.02 0.02 0
0.025 0.02 0
0.03 0.02 0
0.035 0.02 0
0.04 0.02 0
0.045 0.02 0
0.05 0.02 0
0.055 0.02 0
0.06 0.02 0
0.065 0.02 0
0.07 0.02 0
0.075 0.02 0
0.08 0.02 0
0.085 0.02 0
0.09 0.02 0
0.095 0.02 0
0.1 0.02 0
0 0.025 0
0.005 0.025 0
0.01 0.025 0
0.015 0.025 0
0.02 0.025 0
0.025 0.025 0
0.03 0.025 0
0.035 0.025 0
0.04 0.025 0
0.045 0.025 0
0.05 0.025 0
0.055 0.025 0
0.06 0.025 0
0.065 0.025 0
0.07 0.025 0
0.075 0.025 0
0.08 0.025 0
0.085 0.025 0
0.09 0.025 0
0.095 0.025 0
0.1 0.025 0
0 0.03 0
0.005 0.03 0
0.01 0.03 0
0.015 0.03 0
0.02 0.03 0
0.025 0.03 0
0.03 0.03 0
0.035 0.03 0
0.04 0.03 0
0.045 0.03 0
0.05 0.03 0
0.055 0.03 0
0.06 0.03 0
0.065 0.03 0
0.07 0.03 0
0.075 0.03 0
0.08 0.03 0
0.085 0.03 0
0.09 0.03 0
0.095 0.03 0
0.1 0.03 0
0 0 0.005
0.005 0 0.005
0.01 0 0.005
0.015 0 0.005
0.02 0 0.005
0.025 0 0.005
0.03 0 0.005
0.035 0 0.005
0.04 0 0.005
0.045 0 0.005
0.05 0 0.005
0.055 0 0.005
0.06 0 0.005
0.065 0 0.005
0.07 0 0.005
0.075 0 0.005
0.08 0 0.005
0.085 0 0.005
0.09 0 0.005
0.095 0 0.005
0.1 0 0.005
0 0.005 0.005
0.005 0.005 0.005
0.01 0.005 0.005
0.015 0.005 0.005
0.02 0.005 0.005
0.025 0.005 0.005
0.03 0.005 0.005
0.035 0.005 0.005
0.04 0.005 0.005
0.045 0.005 0.005
0.05 0.005 0.005
0.055 0.005 0.005
0.06 0.005 0.005
0.065 0.005 0.005
0.07 0.005 0.005
0.075 0.005 0.005
0.08 0.005 0.005
0.085 0.005 0.005
0.09 0.005 0.005
0.095 0.005 0.005
0.1 0.005 0.005
0 0.01 0.005
0.005 0.01 0.005
0.01 0.01 0.005
0.015 0.01 0.005
0.02 0.01 0.005
0.025 0.01 0.005
0.03 0.01 0.005
0.035 0.01 0.005
0.04 0.01 0.005
0.045 0.01 0.005
0.05 0.01 0.005
0.055 0.01 0.005
0.06 0.01 0.005
0.065 0.01 0.005
0.07 0.01 0.005
0.075 0.01 0.005
0.08 0.01 0.005
0.085 0.01 0.005
0.09 0.01 0.005
0.095 0.01 0.005
0.1 0.01 0.005
0 0.015 0.005
0.005 0.015 0.005
0.01 0.015 0.005
0.015 0.015 0.005
0.02 0.015 0.005
0.025 0.015 0.005
0.03 0.015 0.005
0.035 0.015 0.005
0.04 0.015 0.005
0.045 0.015 0.005
0.05 0.015 0.005
0.055 0.015 0.005
0.06 0.015 0.005
0.065 0.015 0.005
0.07 0.015 0.005
0.075 0.015 0.005
0.08 0.015 0.005
0.085 0.015 0.005
0.09 0.015 0.005
0.095 0.015 0.005
0.1 0.015 0.005
0 0.02 0.005
0.005 0.02 0.005
0.01 0.02 0.005
0.015 0.02 0.005
0.02 0.02 0.005
0.025 0.02 0.005
0.03 0.02 0.005
0.035 0.02 0.005
0.04 0.02 0.005
0.045 0.02 0.005
0.05 0.02 0.005
0.055 0.02 0.005
0.06 0.02 0.005
0.065 0.02 0.005
0.07 0.02 0.005
0.075 0.02 0.005
0.08 0.02 0.005
0.085 0.02 0.005
0.09 0.02 0.005
0.095 0.02 0.005
0.1 0.02 0.005
0 0.025 0.005
0.005 0.025 0.005
0.01 0.025 0.005
0.015 0.025 0.005
0.02 0.025 0.005
0.025 0.025 0.005
0.03 0.025 0.005
0.035 0.025 0.005
0.04 0.025 0.005
0.045 0.025 0.005
0.05 0.025 0.005
0.055 0.025 0.005
0.06 0.025 0.005
0.065 0.025 0.005
0.07 0.025 0.005
0.075 0.025 0.005
0.08 0.025 0.005
0.085 0.025 0.005
0.09 0.025 0.005
0.095 0.025 0.005
0.1 0.025 0.005
0 0.03 0.005
0.005 0.03 0.005
0.01 0.03 0.005
0.015 0.03 0.005
0.02 0.03 0.005
0.025 0.03 0.005
0.03 0.03 0.005
0.035 0.03 0.005
0.04 0.03 0.005
0.045 0.03 0.005
0.05 0.03 0.005
0.055 0.03 0.005
0.06 0.03 0.005
0.065 0.03 0.005
0.07 0.03 0.005
0.075 0.03 0.005
0.08 0.03 0.005
0.085 0.03 0.005
0.09 0.03 0.005
0.095 0.03 0.005
0.1 0.03 0.005
0 0 0.01
0.005 0 0.01
0.01 0 0.01
0.015 0 0.01
0.02 0 0.01
0.025 0 0.01
0.03 0 0.01
0.035 0 0.01
0.04 0 0.01
0.045 0 0.01
0.05 0 0.01
0.055 0 0.01
0.06 0 0.01
0.065 0 0.01
0.07 0 0.01
0.075 0 0.01
0.08 0 0.01
0.085 0 0.01
0.09 0 0.01
0.095 0 0.01
0.1 0 0.01
0 0.005 0.01
0.005 0.005 0.01
0.01 0.005 0.01
0.015 0.005 0.01
0.02 0.005 0.01
0.025 0.005 0.01
0.03 0.005 0.01
0.035 0.005 0.01
0.04 0.005 0.01
0.045 0.005 0.01
0.05 0.005 0.01
0.055 0.005 0.01
0.06 0.005 0.01
0.065 0.005 0.01
0.07 0.005 0.01
0.075 0.005 0.01
0.08 0.005 0.01
0.085 0.005 0.01
0.09 0.005 0.01
0.095 0.005 0.01
0.1 0.005 0.01
0 0.01 0.01
0.005 0.01 0.01
0.01 0.01 0.01
0.015 0.01 0.01
0.02 0.01 0.01
0.025 0.01 0.01
0.03 0.01 0.01
0.035 0.01 0.01
0.04 0.01 0.01
0.045 0.01 0.01
0.05 0.01 0.01
0.055 0.01 0.01
0.06 0.01 0.01
0.065 0.01 0.01
0.07 0.01 0.01
0.075 0.01 0.01
0.08 0.01 0.01
0.085 0.01 0.01
0.09 0.01 0.01
0.095 0.01 0.01
0.1 0.01 0.01
0 0.015 0.01
0.005 0.015 0.01
0.01 0.015 0.01
0.015 0.015 0.01
0.02 0.015 0.01
0.025 0.015 0.01
0.03 0.015 0.01
0.035 0.015 0.01
0.04 0.015 0.01
0.045 0.015 0.01
0.05 0.015 0.01
0.055 0.015 0.01
0.06 0.015 0.01
0.065 0.015 0.01
0.07 0.015 0.01
0.075 0.015 0.01
0.08 0.015 0.01
0.085 0.015 0.01
0.09 0.015 0.01
0.095 0.015 0.01
0.1 0.015 0.01
0 0.02 0.01
0.005 0.02 0.01
0.01 0.02 0.01
0.015 0.02 0.01
0.02 0.02 0.01
0.025 0.02 0.01
0.03 0.02 0.01
0.035 0.02 0.01
0.04 0.02 0.01
0.045 0.02 0.01
0.05 0.02 0.01
0.055 0.02 0.01
0.06 0.02 0.01
0.065 0.02 0.01
0.07 0.02 0.01
0.075 0.02 0.01
0.08 0.02 0.01
0.085 0.02 0.01
0.09 0.02 0.01
0.095 0.02 0.01
0.1 0.02 0.01
0 0.025 0.01
0.005 0.025 0.01
0.01 0.025 0.01
0.015 0.025 0.01
0.02 0.025 0.01
0.025 0.025 0.01
0.03 0.025 0.01
0.035 0.025 0.01
0.04 0.025 0.01
0.045 0.025 0.01
0.05 0.025 0.01
0.055 0.025 0.01
0.06 0.025 0.01
0.065 0.025 0.01
0.07 0.025 0.01
0.075 0.025 0.01
0.08 0.025 0.01
0.085 0.025 0.01
0.09 0.025 0.01
0.095 0.025 0.01
0.1 0.025 0.01
0 0.03 0.01
0.005 0.03 0.01
0.01 0.03 0.01
0.015 0.03 0.01
0.02 0.03 0.01
0.025 0.03 0.01
0.03 0.03 0.01
0.035 0.03 0.01
0.04 0.03 0.01
0.045 0.03 0.01
0.05 0.03 0.01
0.055 0.03 0.01
0.06 0.03 0.01
0.065 0.03 0.01
0.07 0.03 0.01
0.075 0.03 0.01
0.08 0.03 0.01
0.085 0.03 0.01
0.09 0.03 0.01
0.095 0.03 0.01
0.1 0.03 0.01
0 0 0.015
0.005 0 0.015
0.01 0 0.015
0.015 0 0.015
0.02 0 0.015
0.025 0 0.015
0.03 0 0.015
0.035 0 0.015
0.04 0 0.015
0.045 0 0.015
0.05 0 0.015
0.055 0 0.015
0.06 0 0.015
0.065 0 0.015
0.07 0 0.015
0.075 0 0.015
0.08 0 0.015
0.085 0 0.015
0.09 0 0.015
0.095 0 0.015
0.1 0 0.015
0 0.005 0.015
0.005 0.005 0.015
0.01 0.005 0.015
0.015 0.005 0.015
0.02 0.005 0.015
0.025 0.005 0.015
0.03 0.005 0.015
0.035 0.005 0.015
0.04 0.005 0.015
0.045 0.005 0.015
0.05 0.005 0.015
0.055 0.005 0.015
0.06 0.005 0.015
0.065 0.005 0.015
0.07 0.005 0.015
0.075 0.005 0.015
0.08 0.005 0.015
0.085 0.005 0.015
0.09 0.005 0.015
0.095 0.005 0.015
0.1 0.005 0.015
0 0.01 0.015
0.005 0.01 0.015
0.01 0.01 0.015
0.015 0.01 0.015
0.02 0.01 0.015
0.025 0.01 0.015
0.03 0.01 0.015
0.035 0.01 0.015
0.04 0.01 0.015
0.045 0.01 0.015
0.05 0.01 0.015
0.055 0.01 0.015
0.06 0.01 0.015
0.065 0.01 0.015
0.07 0.01 0.015
0.075 0.01 0.015
0.08 0.01 0.015
0.085 0.01 0.015
0.09 0.01 0.015
0.095 0.01 0.015
0.1 0.01 0.015
0 0.015 0.015
0.005 0.015 0.015
0.01 0.015 0.015
0.015 0.015 0.015
0.02 0.015 0.015
0.025 0.015 0.015
0.03 0.015 0.015
0.035 0.015 0.015
0.04 0.015 0.015
0.045 0.015 0.015
0.05 0.015 0.015
0.055 0.015 0.015
0.06 0.015 0.015
0.065 0.015 0.015
0.07 0.015 0.015
0.075 0.015 0.015
0.08 0.015 0.015
0.085 0.015 0.015
0.09 0.015 0.015
0.095 0.015 0.015
0.1 0.015 0.015
0 0.02 0.015
0.005 0.02 0.015
0.01 0.02 0.015
0.015 0.02 0.015
0.02 0.02 0.015
0.025 0.02 0.015
0.03 0.02 0.015
0.035 0.02 0.015
0.04 0.02 0.015
0.045 0.02 0.015
0.05 0.02 0.015
0.055 0.02 0.015
0.06 0.02 0.015
0.065 0.02 0.015
0.07 0.02 0.015
0.075 0.02 0.015
0.08 0.02 0.015
0.085 0.02 0.015
0.09 0.02 0.015
0.095 0.02 0.015
0.1 0.02 0.015
0 0.025 0.015
0.005 0.025 0.015
0.01 0.025 0.015
0.015 0.025 0.015
0.02 0.025 0.015
0.025 0.025 0.015
0.03 0.025 0.015
0.035 0.025 0.015
0.04 0.025 0.015
0.045 0.025 0.015
0.05 0.025 0.015
0.055 0.025 0.015
0.06 0.025 0.015
0.065 0.025 0.015
0.07 0.025 0.015
0.075 0.025 0.015
0.08 0.025 0.015
0.085 0.025 0.015
0.09 0.025 0.015
0.095 0.025 0.015
0.1 0.025 0.015
0 0.03 0.015
0.005 0.03 0.015
0.01 0.03 0.015
0.015 0.03 0.015
0.02 0.03 0.015
0.025 0.03 0.015
0.03 0.03 0.015
0.035 0.03 0.015
0.04 0.03 0.015
0.045 0.03 0.015
0.05 0.03 0.015
0.055 0.03 0.015
0.06 0.03 0.015
0.065 0.03 0.015
0.07 0.03 0.015
0.075 0.03 0.015
0.08 0.03 0.015
0.085 0.03 0.015
0.09 0.03 0.015
0.095 0.03 0.015
0.1 0.03 0.015
0 0 0.02
0.005 0 0.02
0.01 0 0.02
0.015 0 0.02
0.02 0 0.02
0.025 0 0.02
0.03 0 0.02
0.035 0 0.02
0.04 0 0.02
0.045 0 0.02
0.05 0 0.02
0.055 0 0.02
0.06 0 0.02
0.065 0 0.02
0.07 0 0.02
0.075 0 0.02
0.08 0 0.02
0.085 0 0.02
0.09 0 0.02
0.095 0 0.02
0.1 0 0.02
0 0.005 0.02
0.005 0.005 0.02
0.01 0.005 0.02
0.015 0.005 0.02
0.02 0.005 0.02
0.025 0.005 0.02
0.03 0.005 0.02
0.035 0.005 0.02
0.04 0.005 0.02
0.045 0.005 0.02
0.05 0.005 0.02
0.055 0.005 0.02
0.06 0.005 0.02
0.065 0.005 0.02
0.07 0.005 0.02
0.075 0.005 0.02
0.08 0.005 0.02
0.085 0.005 0.02
0.09 0.005 0.02
0.095 0.005 0.02
0.1 0.005 0.02
0 0.01 0.02
0.005 0.01 0.02
0.01 0.01 0.02
0.015 0.01 0.02
0.02 0.01 0.02
0.025 0.01 0.02
0.03 0.01 0.02
0.035 0.01 0.02
0.04 0.01 0.02
0.045 0.01 0.02
0.05 0.01 0.02
0.055 0.01 0.02
0.06 0.01 0.02
0.065 0.01 0.02
0.07 0.01 0.02
0.075 0.01 0.02
0.08 0.01 0.02
0.085 0.01 0.02
0.09 0.01 0.02
0.095 0.01 0.02
[...]
<PointData Vectors="Displacement">
<DataArray type="Float32" Name="Displacement" NumberOfComponents="3" format="ascii">
0 0 0
0.000114609 6.15034e-05 6.15018e-05
0.000204289 7.22539e-05 7.22507e-05
0.000296782 7.452e-05 7.45152e-05
0.000397079 7.15703e-05 7.15639e-05
0.000503451 6.76089e-05 6.76009e-05
0.000613918 6.41529e-05 6.41436e-05
0.000726798 6.19448e-05 6.19341e-05
0.000840841 6.12833e-05 6.12714e-05
0.000955087 6.22835e-05 6.22706e-05
0.00106874 6.49717e-05 6.49578e-05
0.00118108 6.9322e-05 6.93075e-05
0.00129143 7.52635e-05 7.52484e-05
0.00139915 8.26742e-05 8.26587e-05
0.00150363 9.13705e-05 9.13547e-05
0.00160435 0.000101099 0.000101083
0.00170087 0.000111535 0.000111519
0.00179279 0.00012233 0.000122314
0.0018796 0.000132934 0.000132918
0.00195997 0.000143358 0.000143342
0.00203 0.000148607 0.000148592
0 0 0
9.91177e-05 3.06936e-05 6.10694e-05
0.000196935 4.74477e-05 7.37645e-05
0.000295391 5.05607e-05 7.5259e-05
0.000398529 4.91918e-05 7.2109e-05
0.000505721 4.65044e-05 6.80271e-05
0.000615855 4.41091e-05 6.45482e-05
0.000727802 4.2588e-05 6.23518e-05
0.000840624 4.21384e-05 6.17111e-05
0.000953531 4.2807e-05 6.27263e-05
0.00106582 4.45868e-05 6.54179e-05
0.00117683 4.74438e-05 6.97576e-05
0.00128594 5.13172e-05 7.56719e-05
0.00139255 5.61108e-05 8.30348e-05
0.00149612 6.16835e-05 9.16562e-05
0.00159618 6.7841e-05 0.000101272
0.00169233 7.43345e-05 0.000111541
0.00178429 8.08429e-05 0.000122056
0.00187176 8.70887e-05 0.000132205
0.00195469 9.24156e-05 0.000142211
0.00203 9.47039e-05 0.000147319
0 0 0
9.80705e-05 1.34942e-05 6.21192e-05
0.000192617 2.2337e-05 7.46653e-05
0.00029287 2.54698e-05 7.64627e-05
0.00039784 2.51237e-05 7.31465e-05
0.000506096 2.38338e-05 6.89893e-05
0.000616489 2.26033e-05 6.55006e-05
0.000728158 2.18173e-05 6.33412e-05
0.000840398 2.15824e-05 6.27451e-05
0.000952576 2.19128e-05 6.37887e-05
0.00106408 2.27947e-05 6.64801e-05
0.00117432 2.42034e-05 7.0784e-05
0.0012827 2.61021e-05 7.66204e-05
0.00138867 2.84367e-05 8.38545e-05
0.00149171 3.1129e-05 9.22823e-05
0.00159137 3.40716e-05 0.000101617
0.00168733 3.71222e-05 0.000111466
0.00177941 4.01243e-05 0.000121334
0.00186776 4.28919e-05 0.000130573
0.0019525 4.50302e-05 0.000139739
0.00203 4.58689e-05 0.000144528
0 0 0
9.76972e-05 7.7762e-10 6.23541e-05
0.000191857 1.57787e-09 7.51626e-05
0.000291844 2.38048e-09 7.68869e-05
0.000397381 3.16089e-09 7.36175e-05
0.000506043 3.90709e-09 6.94342e-05
0.000616601 4.60936e-09 6.59467e-05
0.000728229 5.25786e-09 6.38028e-05
0.000840303 5.84328e-09 6.32259e-05
0.000952253 6.35777e-09 6.42816e-05
0.00106351 6.79561e-09 6.69719e-05
0.00117349 7.15386e-09 7.1258e-05
0.00128163 7.4327e-09 7.70567e-05
0.00138738 7.63579e-09 8.42287e-05
0.00149024 7.77025e-09 9.25637e-05
0.00158977 7.84648e-09 0.000101762
0.00168566 7.87763e-09 0.000111408
0.00177782 7.87868e-09 0.000120969
0.0018665 7.86507e-09 0.000129818
0.00195181 7.85075e-09 0.000138647
0.00203 7.84516e-09 0.000143303
0 0 0
9.80709e-05 -1.34927e-05 6.21196e-05
0.000192617 -2.23338e-05 7.46663e-05
0.000292871 -2.5465e-05 7.64642e-05
0.000397841 -2.51173e-05 7.31486e-05
0.000506096 -2.38259e-05 6.89918e-05
0.00061649 -2.2594e-05 6.55036e-05
0.000728159 -2.18068e-05 6.33446e-05
0.000840399 -2.15706e-05 6.27489e-05
0.000952576 -2.19e-05 6.37929e-05
0.00106408 -2.27811e-05 6.64846e-05
0.00117432 -2.4189e-05 7.07887e-05
0.00128271 -2.60872e-05 7.66253e-05
0.00138867 -2.84214e-05 8.38595e-05
0.00149171 -3.11135e-05 9.22874e-05
0.00159137 -3.40559e-05 0.000101622
0.00168733 -3.71064e-05 0.000111471
0.00177941 -4.01086e-05 0.000121339
0.00186776 -4.28761e-05 0.000130579
0.0019525 -4.50145e-05 0.000139745
0.00203 -4.58532e-05 0.000144533
0 0 0
9.91184e-05 -3.0692e-05 6.10703e-05
0.000196935 -4.74445e-05 7.37666e-05
0.000295391 -5.05559e-05 7.52621e-05
0.000398529 -4.91854e-05 7.21132e-05
0.000505722 -4.64965e-05 6.80324e-05
0.000615855 -4.40998e-05 6.45543e-05
0.000727802 -4.25773e-05 6.23588e-05
0.000840624 -4.21266e-05 6.17189e-05
0.000953531 -4.27941e-05 6.27347e-05
0.00106582 -4.4573e-05 6.54269e-05
0.00117683 -4.74294e-05 6.97671e-05
0.00128594 -5.13022e-05 7.56818e-05
0.00139255 -5.60953e-05 8.30449e-05
0.00149612 -6.16679e-05 9.16665e-05
0.00159618 -6.78251e-05 0.000101283
0.00169233 -7.43186e-05 0.000111552
0.00178429 -8.08271e-05 0.000122066
0.00187176 -8.70729e-05 0.000132216
0.00195469 -9.24e-05 0.000142222
0.00203 -9.46883e-05 0.00014733
0 0 0
0.000114609 -6.15018e-05 6.15034e-05
0.000204289 -7.22507e-05 7.22539e-05
0.000296782 -7.45152e-05 7.452e-05
0.000397079 -7.15639e-05 7.15703e-05
0.000503451 -6.76009e-05 6.76089e-05
0.000613918 -6.41436e-05 6.41529e-05
0.000726798 -6.19341e-05 6.19448e-05
0.000840841 -6.12714e-05 6.12833e-05
0.000955087 -6.22706e-05 6.22835e-05
0.00106874 -6.49578e-05 6.49717e-05
0.00118108 -6.93075e-05 6.9322e-05
0.00129143 -7.52484e-05 7.52635e-05
0.00139915 -8.26587e-05 8.26742e-05
0.00150363 -9.13547e-05 9.13705e-05
0.00160435 -0.000101083 0.000101099
0.00170087 -0.000111519 0.000111535
0.00179279 -0.000122314 0.00012233
0.0018796 -0.000132918 0.000132934
0.00195997 -0.000143342 0.000143358
0.00203 -0.000148592 0.000148607
0 0 0
9.91184e-05 6.10703e-05 3.0692e-05
0.000196935 7.37666e-05 4.74445e-05
0.000295391 7.52621e-05 5.05559e-05
0.000398529 7.21132e-05 4.91854e-05
0.000505722 6.80324e-05 4.64965e-05
0.000615855 6.45543e-05 4.40998e-05
0.000727802 6.23588e-05 4.25773e-05
0.000840624 6.17189e-05 4.21266e-05
0.000953531 6.27347e-05 4.27941e-05
0.00106582 6.54269e-05 4.4573e-05
0.00117683 6.97671e-05 4.74294e-05
0.00128594 7.56818e-05 5.13022e-05
0.00139255 8.30449e-05 5.60953e-05
0.00149612 9.16665e-05 6.16679e-05
0.00159618 0.000101283 6.78251e-05
0.00169233 0.000111552 7.43186e-05
0.00178429 0.000122066 8.08271e-05
0.00187176 0.000132216 8.70729e-05
0.00195469 0.000142222 9.24e-05
0.00203 0.00014733 9.46883e-05
0 0 0
8.33608e-05 3.08413e-05 3.08403e-05
0.000189256 4.76188e-05 4.76167e-05
0.000294043 5.05981e-05 5.05949e-05
0.000400005 4.9067e-05 4.90628e-05
0.000507994 4.63105e-05 4.63053e-05
0.000617774 4.38726e-05 4.38664e-05
0.000728782 4.2326e-05 4.2319e-05
0.000840388 4.18609e-05 4.18531e-05
0.000951968 4.25231e-05 4.25146e-05
0.00106291 4.4306e-05 4.42969e-05
0.00117261 4.71764e-05 4.71668e-05
0.0012805 5.10745e-05 5.10647e-05
0.00138604 5.59062e-05 5.58961e-05
0.00148873 6.15329e-05 6.15225e-05
0.00158818 6.77644e-05 6.77539e-05
0.00168405 7.43601e-05 7.43496e-05
0.00177615 8.10196e-05 8.10091e-05
0.00186436 8.74964e-05 8.74859e-05
0.00194973 9.30746e-05 9.30641e-05
0.00203 9.54747e-05 9.54642e-05
0 0 0
8.23523e-05 1.3447e-05 3.14525e-05
0.000184807 2.22588e-05 4.85491e-05
0.00029133 2.5282e-05 5.13637e-05
0.000399256 2.48518e-05 4.96121e-05
0.000508332 2.3504e-05 4.66984e-05
0.000618376 2.22359e-05 4.41931e-05
0.000729108 2.14197e-05 4.263e-05
0.000840142 2.11629e-05 4.21696e-05
0.000951008 2.14825e-05 4.28389e-05
0.00106119 2.23669e-05 4.46222e-05
0.00117014 2.37934e-05 4.74824e-05
0.00127733 2.57275e-05 5.13571e-05
0.00138226 2.81182e-05 5.61487e-05
0.00148446 3.08923e-05 6.17136e-05
0.00158357 3.39512e-05 6.78516e-05
0.00167934 3.71716e-05 7.43039e-05
0.0017717 4.04284e-05 8.07501e-05
0.00186085 4.35355e-05 8.69783e-05
0.00194789 4.59862e-05 9.23805e-05
0.00203 4.69512e-05 9.47277e-05
0 0 0
8.19504e-05 5.35547e-10 3.17464e-05
0.000183978 1.05826e-09 4.89231e-05
0.000290254 1.58202e-09 5.1719e-05
0.000398755 2.09697e-09 4.98968e-05
0.000508262 2.59086e-09 4.69272e-05
0.000618471 3.05563e-09 4.43938e-05
0.000729164 3.48476e-09 4.28254e-05
0.000840037 3.87232e-09 4.23688e-05
0.000950682 4.21333e-09 4.30422e-05
0.00106062 4.5042e-09 4.48253e-05
0.00116933 4.74315e-09 4.76785e-05
0.00127629 4.9304e-09 5.15377e-05
0.00138101 5.06842e-09 5.63034e-05
0.00148306 5.16192e-09 6.18289e-05
0.00158207 5.21764e-09 6.79079e-05
0.00167782 5.24404e-09 7.42712e-05
0.00177031 5.25059e-09 8.05909e-05
0.0018598 5.2469e-09 8.66733e-05
0.00194734 5.24155e-09 9.19593e-05
0.00203 5.23951e-09 9.42631e-05
0 0 0
8.23523e-05 -1.34459e-05 3.1453e-05
0.000184807 -2.22567e-05 4.85501e-05
0.00029133 -2.52789e-05 5.13653e-05
0.000399256 -2.48476e-05 4.96142e-05
0.000508332 -2.34988e-05 4.6701e-05
0.000618376 -2.22298e-05 4.41962e-05
0.000729108 -2.14127e-05 4.26335e-05
0.000840142 -2.11552e-05 4.21735e-05
0.000951008 -2.1474e-05 4.28431e-05
0.00106119 -2.23579e-05 4.46267e-05
0.00117014 -2.37839e-05 4.74871e-05
0.00127733 -2.57176e-05 5.1362e-05
0.00138226 -2.81081e-05 5.61537e-05
0.00148446 -3.0882e-05 6.17187e-05
0.00158357 -3.39407e-05 6.78568e-05
0.00167934 -3.71611e-05 7.43091e-05
0.0017717 -4.04179e-05 8.07554e-05
0.00186085 -4.3525e-05 8.69836e-05
0.00194789 -4.59757e-05 9.23858e-05
0.00203 -4.69408e-05 9.4733e-05
0 0 0
8.33608e-05 -3.08403e-05 3.08413e-05
0.000189256 -4.76167e-05 4.76188e-05
0.000294043 -5.05949e-05 5.05981e-05
0.000400005 -4.90628e-05 4.9067e-05
0.000507994 -4.63053e-05 4.63105e-05
0.000617774 -4.38664e-05 4.38726e-05
0.000728782 -4.2319e-05 4.2326e-05
0.000840388 -4.18531e-05 4.18609e-05
0.000951968 -4.25146e-05 4.25231e-05
0.00106291 -4.42969e-05 4.4306e-05
0.00117261 -4.71668e-05 4.71764e-05
0.0012805 -5.10647e-05 5.10745e-05
0.00138604 -5.58961e-05 5.59062e-05
0.00148873 -6.15225e-05 6.15329e-05
0.00158818 -6.77539e-05 6.77644e-05
0.00168405 -7.43496e-05 7.43601e-05
0.00177615 -8.10091e-05 8.10196e-05
0.00186436 -8.74859e-05 8.74964e-05
0.00194973 -9.30641e-05 9.30746e-05
0.00203 -9.54642e-05 9.54747e-05
0 0 0
9.91177e-05 -6.10694e-05 3.06936e-05
0.000196935 -7.37645e-05 4.74477e-05
0.000295391 -7.5259e-05 5.05607e-05
0.000398529 -7.2109e-05 4.91918e-05
0.000505721 -6.80271e-05 4.65044e-05
0.000615855 -6.45482e-05 4.41091e-05
0.000727802 -6.23518e-05 4.2588e-05
0.000840624 -6.17111e-05 4.21384e-05
0.000953531 -6.27263e-05 4.2807e-05
0.00106582 -6.54179e-05 4.45868e-05
0.00117683 -6.97576e-05 4.74438e-05
0.00128594 -7.56719e-05 5.13172e-05
0.00139255 -8.30348e-05 5.61108e-05
0.00149612 -9.16562e-05 6.16835e-05
0.00159618 -0.000101272 6.7841e-05
0.00169233 -0.000111541 7.43345e-05
0.00178429 -0.000122056 8.08429e-05
0.00187176 -0.000132205 8.70887e-05
0.00195469 -0.000142211 9.24156e-05
0.00203 -0.000147319 9.47039e-05
0 0 0
9.80709e-05 6.21196e-05 1.34927e-05
0.000192617 7.46663e-05 2.23338e-05
0.000292871 7.64642e-05 2.5465e-05
0.000397841 7.31486e-05 2.51173e-05
0.000506096 6.89918e-05 2.38259e-05
0.00061649 6.55036e-05 2.2594e-05
0.000728159 6.33446e-05 2.18068e-05
0.000840399 6.27489e-05 2.15706e-05
0.000952576 6.37929e-05 2.19e-05
0.00106408 6.64846e-05 2.27811e-05
0.00117432 7.07887e-05 2.4189e-05
0.00128271 7.66253e-05 2.60872e-05
0.00138867 8.38595e-05 2.84214e-05
0.00149171 9.22874e-05 3.11135e-05
0.00159137 0.000101622 3.40559e-05
0.00168733 0.000111471 3.71064e-05
0.00177941 0.000121339 4.01086e-05
0.00186776 0.000130579 4.28761e-05
0.0019525 0.000139745 4.50145e-05
0.00203 0.000144533 4.58532e-05
0 0 0
8.23523e-05 3.1453e-05 1.34459e-05
0.000184807 4.85501e-05 2.22567e-05
0.00029133 5.13653e-05 2.52789e-05
0.000399256 4.96142e-05 2.48476e-05
0.000508332 4.6701e-05 2.34988e-05
0.000618376 4.41962e-05 2.22298e-05
0.000729108 4.26335e-05 2.14127e-05
0.000840142 4.21735e-05 2.11552e-05
0.000951008 4.28431e-05 2.1474e-05
0.00106119 4.46267e-05 2.23579e-05
0.00117014 4.74871e-05 2.37839e-05
0.00127733 5.1362e-05 2.57176e-05
0.00138226 5.61537e-05 2.81081e-05
0.00148446 6.17187e-05 3.0882e-05
0.00158357 6.78568e-05 3.39407e-05
0.00167934 7.43091e-05 3.71611e-05
0.0017717 8.07554e-05 4.04179e-05
0.00186085 8.69836e-05 4.3525e-05
0.00194789 9.23858e-05 4.59757e-05
0.00203 9.4733e-05 4.69408e-05
0 0 0
8.14037e-05 1.37701e-05 1.37696e-05
0.000180255 2.26407e-05 2.26396e-05
0.000288487 2.56121e-05 2.56106e-05
0.00039838 2.50635e-05 2.50614e-05
0.000508605 2.36265e-05 2.36239e-05
0.000618946 2.23097e-05 2.23066e-05
0.000729419 2.14742e-05 2.14707e-05
0.000839888 2.12123e-05 2.12085e-05
0.000950047 2.15318e-05 2.15276e-05
0.00105947 2.24167e-05 2.24122e-05
0.00116769 2.38421e-05 2.38374e-05
0.00127419 2.57729e-05 2.5768e-05
0.00137851 2.81573e-05 2.81522e-05
0.00148024 3.09205e-05 3.09154e-05
0.00157905 3.39616e-05 3.39564e-05
0.00167475 3.71541e-05 3.71489e-05
0.00176739 4.03755e-05 4.03702e-05
0.00185749 4.34531e-05 4.34479e-05
0.00194615 4.58935e-05 4.58883e-05
0.00203 4.68593e-05 4.68541e-05
0 0 0
8.10306e-05 2.65011e-10 1.39071e-05
0.000179414 5.27947e-10 2.28413e-05
0.000287346 7.88561e-10 2.57851e-05
0.000397834 1.04416e-09 2.51897e-05
0.000508505 1.2895e-09 2.37135e-05
0.000619027 1.52039e-09 2.2376e-05
0.000729468 1.73359e-09 2.15328e-05
0.00083978 1.92622e-09 2.12697e-05
0.000949721 2.09589e-09 2.15897e-05
0.00105891 2.24089e-09 2.24743e-05
0.00116688 2.36039e-09 2.38977e-05
0.00127315 2.45456e-09 2.58238e-05
0.00137728 2.52464e-09 2.82002e-05
0.00147886 2.57298e-09 3.09511e-05
0.00157757 2.60291e-09 3.39732e-05
0.00167326 2.61854e-09 3.71373e-05
0.00176604 2.62447e-09 4.03208e-05
0.0018565 2.62517e-09 4.33597e-05
0.00194564 2.62425e-09 4.57736e-05
0.00203 2.62378e-09 4.67306e-05
0 0 0
8.14037e-05 -1.37696e-05 1.37701e-05
0.000180255 -2.26396e-05 2.26407e-05
0.000288487 -2.56106e-05 2.56121e-05
0.00039838 -2.50614e-05 2.50635e-05
0.000508605 -2.36239e-05 2.36265e-05
0.000618946 -2.23066e-05 2.23097e-05
0.000729419 -2.14707e-05 2.14742e-05
0.000839888 -2.12085e-05 2.12123e-05
0.000950047 -2.15276e-05 2.15318e-05
0.00105947 -2.24122e-05 2.24167e-05
0.00116769 -2.38374e-05 2.38421e-05
0.00127419 -2.5768e-05 2.57729e-05
0.00137851 -2.81522e-05 2.81573e-05
0.00148024 -3.09154e-05 3.09205e-05
0.00157905 -3.39564e-05 3.39616e-05
0.00167475 -3.71489e-05 3.71541e-05
0.00176739 -4.03702e-05 4.03755e-05
0.00185749 -4.34479e-05 4.34531e-05
0.00194615 -4.58883e-05 4.58935e-05
0.00203 -4.68541e-05 4.68593e-05
0 0 0
8.23523e-05 -3.14525e-05 1.3447e-05
0.000184807 -4.85491e-05 2.22588e-05
0.00029133 -5.13637e-05 2.5282e-05
0.000399256 -4.96121e-05 2.48518e-05
0.000508332 -4.66984e-05 2.3504e-05
0.000618376 -4.41931e-05 2.22359e-05
0.000729108 -4.263e-05 2.14197e-05
0.000840142 -4.21696e-05 2.11629e-05
0.000951008 -4.28389e-05 2.14825e-05
0.00106119 -4.46222e-05 2.23669e-05
0.00117014 -4.74824e-05 2.37934e-05
0.00127733 -5.13571e-05 2.57275e-05
0.00138226 -5.61487e-05 2.81182e-05
0.00148446 -6.17136e-05 3.08923e-05
0.00158357 -6.78516e-05 3.39512e-05
0.00167934 -7.43039e-05 3.71716e-05
0.0017717 -8.07501e-05 4.04284e-05
0.00186085 -8.69783e-05 4.35355e-05
0.00194789 -9.23805e-05 4.59862e-05
0.00203 -9.47277e-05 4.69512e-05
0 0 0
9.80705e-05 -6.21192e-05 1.34942e-05
0.000192617 -7.46653e-05 2.2337e-05
0.00029287 -7.64627e-05 2.54698e-05
0.00039784 -7.31465e-05 2.51237e-05
0.000506096 -6.89893e-05 2.38338e-05
0.000616489 -6.55006e-05 2.26033e-05
0.000728158 -6.33412e-05 2.18173e-05
0.000840398 -6.27451e-05 2.15824e-05
0.000952576 -6.37887e-05 2.19128e-05
0.00106408 -6.64801e-05 2.27947e-05
0.00117432 -7.0784e-05 2.42034e-05
0.0012827 -7.66204e-05 2.61021e-05
0.00138867 -8.38545e-05 2.84367e-05
0.00149171 -9.22823e-05 3.1129e-05
0.00159137 -0.000101617 3.40716e-05
0.00168733 -0.000111466 3.71222e-05
0.00177941 -0.000121334 4.01243e-05
0.00186776 -0.000130573 4.28919e-05
0.0019525 -0.000139739 4.50302e-05
0.00203 -0.000144528 4.58689e-05
0 0 0
9.76972e-05 6.23541e-05 -7.7762e-10
0.000191857 7.51626e-05 -1.57787e-09
0.000291844 7.68869e-05 -2.38048e-09
0.000397381 7.36175e-05 -3.16089e-09
0.000506043 6.94342e-05 -3.90709e-09
0.000616601 6.59467e-05 -4.60936e-09
0.000728229 6.38028e-05 -5.25786e-09
0.000840303 6.32259e-05 -5.84328e-09
0.000952253 6.42816e-05 -6.35777e-09
0.00106351 6.69719e-05 -6.79561e-09
0.00117349 7.1258e-05 -7.15386e-09
0.00128163 7.70567e-05 -7.4327e-09
0.00138738 8.42287e-05 -7.63579e-09
0.00149024 9.25637e-05 -7.77025e-09
0.00158977 0.000101762 -7.84648e-09
0.00168566 0.000111408 -7.87763e-09
0.00177782 0.000120969 -7.87868e-09
0.0018665 0.000129818 -7.86507e-09
0.00195181 0.000138647 -7.85075e-09
0.00203 0.000143303 -7.84516e-09
0 0 0
8.19504e-05 3.17464e-05 -5.35547e-10
0.000183978 4.89231e-05 -1.05826e-09
0.000290254 5.1719e-05 -1.58202e-09
0.000398755 4.98968e-05 -2.09697e-09
0.000508262 4.69272e-05 -2.59086e-09
0.000618471 4.43938e-05 -3.05563e-09
0.000729164 4.28254e-05 -3.48476e-09
0.000840037 4.23688e-05 -3.87232e-09
0.000950682 4.30422e-05 -4.21333e-09
0.00106062 4.48253e-05 -4.5042e-09
0.00116933 4.76785e-05 -4.74315e-09
0.00127629 5.15377e-05 -4.9304e-09
0.00138101 5.63034e-05 -5.06842e-09
0.00148306 6.18289e-05 -5.16192e-09
0.00158207 6.79079e-05 -5.21764e-09
0.00167782 7.42712e-05 -5.24404e-09
0.00177031 8.05909e-05 -5.25059e-09
0.0018598 8.66733e-05 -5.2469e-09
0.00194734 9.19593e-05 -5.24155e-09
0.00203 9.42631e-05 -5.23951e-09
0 0 0
8.10306e-05 1.39071e-05 -2.65011e-10
0.000179414 2.28413e-05 -5.27947e-10
0.000287346 2.57851e-05 -7.88561e-10
0.000397834 2.51897e-05 -1.04416e-09
0.000508505 2.37135e-05 -1.2895e-09
0.000619027 2.2376e-05 -1.52039e-09
0.000729468 2.15328e-05 -1.73359e-09
0.00083978 2.12697e-05 -1.92622e-09
0.000949721 2.15897e-05 -2.09589e-09
0.00105891 2.24743e-05 -2.24089e-09
0.00116688 2.38977e-05 -2.36039e-09
0.00127315 2.58238e-05 -2.45456e-09
0.00137728 2.82002e-05 -2.52464e-09
0.00147886 3.09511e-05 -2.57298e-09
0.00157757 3.39732e-05 -2.60291e-09
0.00167326 3.71373e-05 -2.61854e-09
0.00176604 4.03208e-05 -2.62447e-09
0.0018565 4.33597e-05 -2.62517e-09
0.00194564 4.57736e-05 -2.62425e-09
0.00203 4.67306e-05 -2.62378e-09
0 0 0
8.0657e-05 -4.86718e-20 3.02338e-20
0.000178564 1.56845e-19 1.80529e-19
0.000286189 2.8479e-19 2.08012e-19
0.000397268 4.81322e-19 3.23583e-19
0.000508392 6.27638e-19 5.55925e-19
0.000619102 8.39997e-19 7.13229e-19
0.000729516 1.14564e-18 9.29752e-19
0.000839672 1.5898e-18 1.21341e-18
0.000949395 1.85627e-18 1.20905e-18
0.00105834 2.36003e-18 1.44383e-18
0.00116607 2.70192e-18 1.50077e-18
0.00127212 3.06061e-18 1.46135e-18
0.00137606 3.41111e-18 1.63392e-18
0.00147748 3.7656e-18 1.44832e-18
0.00157609 3.99705e-18 1.24647e-18
0.00167177 4.30275e-18 1.37536e-18
0.0017647 4.3987e-18 1.17801e-18
0.00185551 4.69358e-18 1.09543e-18
0.00194514 4.70874e-18 1.02635e-18
0.00203 4.68074e-18 1.00327e-18
0 0 0
8.10306e-05 -1.39071e-05 2.65011e-10
0.000179414 -2.28413e-05 5.27947e-10
0.000287346 -2.57851e-05 7.88561e-10
0.000397834 -2.51897e-05 1.04416e-09
0.000508505 -2.37135e-05 1.2895e-09
0.000619027 -2.2376e-05 1.52039e-09
0.000729468 -2.15328e-05 1.73359e-09
0.00083978 -2.12697e-05 1.92622e-09
0.000949721 -2.15897e-05 2.09589e-09
0.00105891 -2.24743e-05 2.24089e-09
0.00116688 -2.38977e-05 2.36039e-09
0.00127315 -2.58238e-05 2.45456e-09
0.00137728 -2.82002e-05 2.52464e-09
0.00147886 -3.09511e-05 2.57298e-09
0.00157757 -3.39732e-05 2.60291e-09
0.00167326 -3.71373e-05 2.61854e-09
0.00176604 -4.03208e-05 2.62447e-09
0.0018565 -4.33597e-05 2.62517e-09
0.00194564 -4.57736e-05 2.62425e-09
0.00203 -4.67306e-05 2.62378e-09
0 0 0
8.19504e-05 -3.17464e-05 5.35547e-10
0.000183978 -4.89231e-05 1.05826e-09
0.000290254 -5.1719e-05 1.58202e-09
0.000398755 -4.98968e-05 2.09697e-09
0.000508262 -4.69272e-05 2.59086e-09
0.000618471 -4.43938e-05 3.05563e-09
0.000729164 -4.28254e-05 3.48476e-09
0.000840037 -4.23688e-05 3.87232e-09
0.000950682 -4.30422e-05 4.21333e-09
0.00106062 -4.48253e-05 4.5042e-09
0.00116933 -4.76785e-05 4.74315e-09
0.00127629 -5.15377e-05 4.9304e-09
0.00138101 -5.63034e-05 5.06842e-09
0.00148306 -6.18289e-05 5.16192e-09
0.00158207 -6.79079e-05 5.21764e-09
0.00167782 -7.42712e-05 5.24404e-09
0.00177031 -8.05909e-05 5.25059e-09
0.0018598 -8.66733e-05 5.2469e-09
0.00194734 -9.19593e-05 5.24155e-09
0.00203 -9.42631e-05 5.23951e-09
0 0 0
9.76972e-05 -6.23541e-05 7.7762e-10
0.000191857 -7.51626e-05 1.57787e-09
0.000291844 -7.68869e-05 2.38048e-09
0.000397381 -7.36175e-05 3.16089e-09
0.000506043 -6.94342e-05 3.90709e-09
0.000616601 -6.59467e-05 4.60936e-09
0.000728229 -6.38028e-05 5.25786e-09
0.000840303 -6.32259e-05 5.84328e-09
0.000952253 -6.42816e-05 6.35777e-09
0.00106351 -6.69719e-05 6.79561e-09
0.00117349 -7.1258e-05 7.15386e-09
0.00128163 -7.70567e-05 7.4327e-09
0.00138738 -8.42287e-05 7.63579e-09
0.00149024 -9.25637e-05 7.77025e-09