<?xml version="1.0"?>
<VTKFile type="UnstructuredGrid" version="0.1" byte_order="LittleEndian">
<UnstructuredGrid>
<Piece NumberOfPoints="1029" NumberOfCells="720">
<Points>
<DataArray type="Float32" NumberOfComponents="3" format="ascii">
0 0 0
0.005 0 0
0.01 0 0
0.015 0 0
0.02 0 0
0.025 0 0
0.03 0 0
0.035 0 0
0.04 0 0
0.045 0 0
0.05 0 0
0.055 0 0
0.06 0 0
0.065 0 0
0.07 0 0
0.075 0 0
0.08 0 0
0.085 0 0
0.09 0 0
0.095 0 0
0.1 0 0
0 0.005 0
0.005 0.005 0
0.01 0.005 0
0.015 0.005 0
0.02 0.005 0
0.025 0.005 0
0.03 0.005 0
0.035 0.005 0
0.04 0.005 0
0.045 0.005 0
0.05 0.005 0
0.055 0.005 0
0.06 0.005 0
0.065 0.005 0
0.07 0.005 0
0.075 0.005 0
0.08 0.005 0
0.085 0.005 0
0.09 0.005 0
0.095 0.005 0
0.1 0.005 0
0 0.01 0
0.005 0.01 0
0.01 0.01 0
0.015 0.01 0
0.02 0.01 0
0.025 0.01 0
0.03 0.01 0
0.035 0.01 0
0.04 0.01 0
0.045 0.01 0
0.05 0.01 0
0.055 0.01 0
0.06 0.01 0
0.065 0.01 0
0.07 0.01 0
0.075 0.01 0
0.08 0.01 0
0.085 0.01 0
0.09 0.01 0
0.095 0.01 0
0.1 0.01 0
0 0.015 0
0.005 0.015 0
0.01 0.015 0
0.015 0.015 0
0.02 0.015 0
0.025 0.015 0
0.03 0.015 0
0.035 0.015 0
0.04 0.015 0
0.045 0.015 0
0.05 0.015 0
0.055 0.015 0
0.06 0.015 0
0.065 0.015 0
0.07 0.015 0
0.075 0.015 0
0.08 0.015 0
0.085 0.015 0
0.09 0.015 0
0.095 0.015 0
0.1 0.015 0
0 0.02 0
0.005 0.02 0
0.01 0.02 0
0.015 0.02 0
0.02 0.02 0
0.025 0.02 0
0.03 0.02 0
0.035 0.02 0
0.04 0.02 0
0.045 0.02 0
0.05 0.02 0
0.055 0.02 0
0.06 0.02 0
0.065 0.02 0
0.07 0.02 0
0.075 0.02 0
0.08 0.02 0
0.085 0.02 0
0.09 0.02 0
0.095 0.02 0
0.1 0.02 0
0 0.025 0
0.005 0.025 0
0.01 0.025 0
0.015 0.025 0
0.02 0.025 0
0.025 0.025 0
0.03 0.025 0
0.035 0.025 0
0.04 0.025 0
0.045 0.025 0
0.05 0.025 0
0.055 0.025 0
0.06 0.025 0
0.065 0.025 0
0.07 0.025 0
0.075 0.025 0
0.08 0.025 0
0.085 0.025 0
0.09 0.025 0
0.095 0.025 0
0.1 0.025 0
0 0.03 0
0.005 0.03 0
0.01 0.03 0
0.015 0.03 0
0.02 0.03 0
0.025 0.03 0
0.03 0.03 0
0.035 0.03 0
0.04 0.03 0
0.045 0.03 0
0.05 0.03 0
0.055 0.03 0
0.06 0.03 0
0.065 0.03 0
0.07 0.03 0
0.075 0.03 0
0.08 0.03 0
0.085 0.03 0
0.09 0.03 0
0.095 0.03 0
0.1 0.03 0
0 0 0.005
0.005 0 0.005
0.01 0 0.005
0.015 0 0.005
0.02 0 0.005
0.025 0 0.005
0.03 0 0.005
0.035 0 0.005
0.04 0 0.005
0.045 0 0.005
0.05 0 0.005
0.055 0 0.005
0.06 0 0.005
0.065 0 0.005
0.07 0 0.005
0.075 0 0.005
0.08 0 0.005
0.085 0 0.005
0.09 0 0.005
0.095 0 0.005
0.1 0 0.005
0 0.005 0.005
0.005 0.005 0.005
0.01 0.005 0.005
0.015 0.005 0.005
0.02 0.005 0.005
0.025 0.005 0.005
0.03 0.005 0.005
0.035 0.005 0.005
0.04 0.005 0.005
0.045 0.005 0.005
0.05 0.005 0.005
0.055 0.005 0.005
0.06 0.005 0.005
0.065 0.005 0.005
0.07 0.005 0.005
0.075 0.005 0.005
0.08 0.005 0.005
0.085 0.005 0.005
0.09 0.005 0.005
0.095 0.005 0.005
0.1 0.005 0.005
0 0.01 0.005
0.005 0.01 0.005
0.01 0.01 0.005
0.015 0.01 0.005
0.02 0.01 0.005
0.025 0.01 0.005
0.03 0.01 0.005
0.035 0.01 0.005
0.04 0.01 0.005
0.045 0.01 0.005
0.05 0.01 0.005
0.055 0.01 0.005
0.06 0.01 0.005
0.065 0.01 0.005
0.07 0.01 0.005
0.075 0.01 0.005
0.08 0.01 0.005
0.085 0.01 0.005
0.09 0.01 0.005
0.095 0.01 0.005
0.1 0.01 0.005
0 0.015 0.005
0.005 0.015 0.005
0.01 0.015 0.005
0.015 0.015 0.005
0.02 0.015 0.005
0.025 0.015 0.005
0.03 0.015 0.005
0.035 0.015 0.005
0.04 0.015 0.005
0.045 0.015 0.005
0.05 0.015 0.005
0.055 0.015 0.005
0.06 0.015 0.005
0.065 0.015 0.005
0.07 0.015 0.005
0.075 0.015 0.005
0.08 0.015 0.005
0.085 0.015 0.005
0.09 0.015 0.005
0.095 0.015 0.005
0.1 0.015 0.005
0 0.02 0.005
0.005 0.02 0.005
0.01 0.02 0.005
0.015 0.02 0.005
0.02 0.02 0.005
0.025 0.02 0.005
0.03 0.02 0.005
0.035 0.02 0.005
0.04 0.02 0.005
0.045 0.02 0.005
0.05 0.02 0.005
0.055 0.02 0.005
0.06 0.02 0.005
0.065 0.02 0.005
0.07 0.02 0.005
0.075 0.02 0.005
0.08 0.02 0.005
0.085 0.02 0.005
0.09 0.02 0.005
0.095 0.02 0.005
0.1 0.02 0.005
0 0.025 0.005
0.005 0.025 0.005
0.01 0.025 0.005
0.015 0.025 0.005
0.02 0.025 0.005
0.025 0.025 0.005
0.03 0.025 0.005
0.035 0.025 0.005
0.04 0.025 0.005
0.045 0.025 0.005
0.05 0.025 0.005
0.055 0.025 0.005
0.06 0.025 0.005
0.065 0.025 0.005
0.07 0.025 0.005
0.075 0.025 0.005
0.08 0.025 0.005
0.085 0.025 0.005
0.09 0.025 0.005
0.095 0.025 0.005
0.1 0.025 0.005
0 0.03 0.005
0.005 0.03 0.005
0.01 0.03 0.005
0.015 0.03 0.005
0.02 0.03 0.005
0.025 0.03 0.005
0.03 0.03 0.005
0.035 0.03 0.005
0.04 0.03 0.005
0.045 0.03 0.005
0.05 0.03 0.005
0.055 0.03 0.005
0.06 0.03 0.005
0.065 0.03 0.005
0.07 0.03 0.005
0.075 0.03 0.005
0.08 0.03 0.005
0.085 0.03 0.005
0.09 0.03 0.005
0.095 0.03 0.005
0.1 0.03 0.005
0 0 0.01
0.005 0 0.01
0.01 0 0.01
0.015 0 0.01
0.02 0 0.01
0.025 0 0.01
0.03 0 0.01
0.035 0 0.01
0.04 0 0.01
0.045 0 0.01
0.05 0 0.01
0.055 0 0.01
0.06 0 0.01
0.065 0 0.01
0.07 0 0.01
0.075 0 0.01
0.08 0 0.01
0.085 0 0.01
0.09 0 0.01
0.095 0 0.01
0.1 0 0.01
0 0.005 0.01
0.005 0.005 0.01
0.01 0.005 0.01
0.015 0.005 0.01
0.02 0.005 0.01
0.025 0.005 0.01
0.03 0.005 0.01
0.035 0.005 0.01
0.04 0.005 0.01
0.045 0.005 0.01
0.05 0.005 0.01
0.055 0.005 0.01
0.06 0.005 0.01
0.065 0.005 0.01
0.07 0.005 0.01
0.075 0.005 0.01
0.08 0.005 0.01
0.085 0.005 0.01
0.09 0.005 0.01
0.095 0.005 0.01
0.1 0.005 0.01
0 0.01 0.01
0.005 0.01 0.01
0.01 0.01 0.01
0.015 0.01 0.01
0.02 0.01 0.01
0.025 0.01 0.01
0.03 0.01 0.01
0.035 0.01 0.01
0.04 0.01 0.01
0.045 0.01 0.01
0.05 0.01 0.01
0.055 0.01 0.01
0.06 0.01 0.01
0.065 0.01 0.01
0.07 0.01 0.01
0.075 0.01 0.01
0.08 0.01 0.01
0.085 0.01 0.01
0.09 0.01 0.01
0.095 0.01 0.01
0.1 0.01 0.01
0 0.015 0.01
0.005 0.015 0.01
0.01 0.015 0.01
0.015 0.015 0.01
0.02 0.015 0.01
0.025 0.015 0.01
0.03 0.015 0.01
0.035 0.015 0.01
0.04 0.015 0.01
0.045 0.015 0.01
0.05 0.015 0.01
0.055 0.015 0.01
0.06 0.015 0.01
0.065 0.015 0.01
0.07 0.015 0.01
0.075 0.015 0.01
0.08 0.015 0.01
0.085 0.015 0.01
0.09 0.015 0.01
0.095 0.015 0.01
0.1 0.015 0.01
0 0.02 0.01
0.005 0.02 0.01
0.01 0.02 0.01
0.015 0.02 0.01
0.02 0.02 0.01
0.025 0.02 0.01
0.03 0.02 0.01
0.035 0.02 0.01
0.04 0.02 0.01
0.045 0.02 0.01
0.05 0.02 0.01
0.055 0.02 0.01
0.06 0.02 0.01
0.065 0.02 0.01
0.07 0.02 0.01
0.075 0.02 0.01
0.08 0.02 0.01
0.085 0.02 0.01
0.09 0.02 0.01
0.095 0.02 0.01
0.1 0.02 0.01
0 0.025 0.01
0.005 0.025 0.01
0.01 0.025 0.01
0.015 0.025 0.01
0.02 0.025 0.01
0.025 0.025 0.01
0.03 0.025 0.01
0.035 0.025 0.01
0.04 0.025 0.01
0.045 0.025 0.01
0.05 0.025 0.01
0.055 0.025 0.01
0.06 0.025 0.01
0.065 0.025 0.01
0.07 0.025 0.01
0.075 0.025 0.01
0.08 0.025 0.01
0.085 0.025 0.01
0.09 0.025 0.01
0.095 0.025 0.01
0.1 0.025 0.01
0 0.03 0.01
0.005 0.03 0.01
0.01 0.03 0.01
0.015 0.03 0.01
0.02 0.03 0.01
0.025 0.03 0.01
0.03 0.03 0.01
0.035 0.03 0.01
0.04 0.03 0.01
0.045 0.03 0.01
0.05 0.03 0.01
0.055 0.03 0.01
0.06 0.03 0.01
0.065 0.03 0.01
0.07 0.03 0.01
0.075 0.03 0.01
0.08 0.03 0.01
0.085 0.03 0.01
0.09 0.03 0.01
0.095 0.03 0.01
0.1 0.03 0.01
0 0 0.015
0.005 0 0.015
0.01 0 0.015
0.015 0 0.015
0.02 0 0.015
0.025 0 0.015
0.03 0 0.015
0.035 0 0.015
0.04 0 0.015
0.045 0 0.015
0.05 0 0.015
0.055 0 0.015
0.06 0 0.015
0.065 0 0.015
0.07 0 0.015
0.075 0 0.015
0.08 0 0.015
0.085 0 0.015
0.09 0 0.015
0.095 0 0.015
0.1 0 0.015
0 0.005 0.015
0.005 0.005 0.015
0.01 0.005 0.015
0.015 0.005 0.015
0.02 0.005 0.015
0.025 0.005 0.015
0.03 0.005 0.015
0.035 0.005 0.015
0.04 0.005 0.015
0.045 0.005 0.015
0.05 0.005 0.015
0.055 0.005 0.015
0.06 0.005 0.015
0.065 0.005 0.015
0.07 0.005 0.015
0.075 0.005 0.015
0.08 0.005 0.015
0.085 0.005 0.015
0.09 0.005 0.015
0.095 0.005 0.015
0.1 0.005 0.015
0 0.01 0.015
0.005 0.01 0.015
0.01 0.01 0.015
0.015 0.01 0.015
0.02 0.01 0.015
0.025 0.01 0.015
0.03 0.01 0.015
0.035 0.01 0.015
0.04 0.01 0.015
0.045 0.01 0.015
0.05 0.01 0.015
0.055 0.01 0.015
0.06 0.01 0.015
0.065 0.01 0.015
0.07 0.01 0.015
0.075 0.01 0.015
0.08 0.01 0.015
0.085 0.01 0.015
0.09 0.01 0.015
0.095 0.01 0.015
0.1 0.01 0.015
0 0.015 0.015
0.005 0.015 0.015
0.01 0.015 0.015
0.015 0.015 0.015
0.02 0.015 0.015
0.025 0.015 0.015
0.03 0.015 0.015
0.035 0.015 0.015
0.04 0.015 0.015
0.045 0.015 0.015
0.05 0.015 0.015
0.055 0.015 0.015
0.06 0.015 0.015
0.065 0.015 0.015
0.07 0.015 0.015
0.075 0.015 0.015
0.08 0.015 0.015
0.085 0.015 0.015
0.09 0.015 0.015
0.095 0.015 0.015
0.1 0.015 0.015
0 0.02 0.015
0.005 0.02 0.015
0.01 0.02 0.015
0.015 0.02 0.015
0.02 0.02 0.015
0.025 0.02 0.015
0.03 0.02 0.015
0.035 0.02 0.015
0.04 0.02 0.015
0.045 0.02 0.015
0.05 0.02 0.015
0.055 0.02 0.015
0.06 0.02 0.015
0.065 0.02 0.015
0.07 0.02 0.015
0.075 0.02 0.015
0.08 0.02 0.015
0.085 0.02 0.015
0.09 0.02 0.015
0.095 0.02 0.015
0.1 0.02 0.015
0 0.025 0.015
0.005 0.025 0.015
0.01 0.025 0.015
0.015 0.025 0.015
0.02 0.025 0.015
0.025 0.025 0.015
0.03 0.025 0.015
0.035 0.025 0.015
0.04 0.025 0.015
0.045 0.025 0.015
0.05 0.025 0.015
0.055 0.025 0.015
0.06 0.025 0.015
0.065 0.025 0.015
0.07 0.025 0.015
0.075 0.025 0.015
0.08 0.025 0.015
0.085 0.025 0.015
0.09 0.025 0.015
0.095 0.025 0.015
0.1 0.025 0.015
0 0.03 0.015
0.005 0.03 0.015
0.01 0.03 0.015
0.015 0.03 0.015
0.02 0.03 0.015
0.025 0.03 0.015
0.03 0.03 0.015
0.035 0.03 0.015
0.04 0.03 0.015
0.045 0.03 0.015
0.05 0.03 0.015
0.055 0.03 0.015
0.06 0.03 0.015
0.065 0.03 0.015
0.07 0.03 0.015
0.075 0.03 0.015
0.08 0.03 0.015
0.085 0.03 0.015
0.09 0.03 0.015
0.095 0.03 0.015
0.1 0.03 0.015
0 0 0.02
0.005 0 0.02
0.01 0 0.02
0.015 0 0.02
0.02 0 0.02
0.025 0 0.02
0.03 0 0.02
0.035 0 0.02
0.04 0 0.02
0.045 0 0.02
0.05 0 0.02
0.055 0 0.02
0.06 0 0.02
0.065 0 0.02
0.07 0 0.02
0.075 0 0.02
0.08 0 0.02
0.085 0 0.02
0.09 0 0.02
0.095 0 0.02
0.1 0 0.02
0 0.005 0.02
0.005 0.005 0.02
0.01 0.005 0.02
0.015 0.005 0.02
0.02 0.005 0.02
0.025 0.005 0.02
0.03 0.005 0.02
0.035 0.005 0.02
0.04 0.005 0.02
0.045 0.005 0.02
0.05 0.005 0.02
0.055 0.005 0.02
0.06 0.005 0.02
0.065 0.005 0.02
0.07 0.005 0.02
0.075 0.005 0.02
0.08 0.005 0.02
0.085 0.005 0.02
0.09 0.005 0.02
0.095 0.005 0.02
0.1 0.005 0.02
0 0.01 0.02
0.005 0.01 0.02
0.01 0.01 0.02
0.015 0.01 0.02
0.02 0.01 0.02
0.025 0.01 0.02
0.03 0.01 0.02
0.035 0.01 0.02
0.04 0.01 0.02
0.045 0.01 0.02
0.05 0.01 0.02
0.055 0.01 0.02
0.06 0.01 0.02
0.065 0.01 0.02
0.07 0.01 0.02
0.075 0.01 0.02
0.08 0.01 0.02
0.085 0.01 0.02
0.09 0.01 0.02
0.095 0.01 0.02
[...]
<PointData Vectors="Displacement">
<DataArray type="Float32" Name="Displacement" NumberOfComponents="3" format="ascii">
0 0 0
8.05154e-05 4.34681e-05 4.34681e-05
0.000143456 4.9968e-05 4.9968e-05
0.000209442 5.00019e-05 5.00019e-05
0.00028194 4.63183e-05 4.63183e-05
0.000359554 4.21095e-05 4.21095e-05
0.000440699 3.85789e-05 3.85789e-05
0.000523995 3.63392e-05 3.63392e-05
0.00060836 3.56617e-05 3.56617e-05
0.000692909 3.66657e-05 3.66657e-05
0.000776868 3.9388e-05 3.9388e-05
0.000859518 4.38109e-05 4.38109e-05
0.000940172 4.98657e-05 4.98657e-05
0.00101817 5.74279e-05 5.74279e-05
0.00109291 6.63062e-05 6.63062e-05
0.00116384 7.62348e-05 7.62348e-05
0.00123051 8.68738e-05 8.68738e-05
0.00129254 9.78548e-05 9.78548e-05
0.00134944 0.000108606 0.000108606
0.00139988 0.000119124 0.000119124
0.00144 0.000124406 0.000124406
0 0 0
6.99432e-05 2.1258e-05 4.2989e-05
0.000139239 3.25383e-05 5.09336e-05
0.000209666 3.39232e-05 5.05185e-05
0.000284143 3.20598e-05 4.67555e-05
0.000362153 2.93315e-05 4.25006e-05
0.000442775 2.69849e-05 3.89797e-05
0.000525056 2.55045e-05 3.67661e-05
0.000608158 2.5077e-05 3.61153e-05
0.000691334 2.57634e-05 3.71366e-05
0.000773895 2.75716e-05 3.98634e-05
0.000855182 3.04769e-05 4.42755e-05
0.000934561 3.44216e-05 5.0302e-05
0.00101143 3.93083e-05 5.78138e-05
0.00108523 4.49906e-05 6.66132e-05
0.00115549 5.12661e-05 7.64241e-05
0.00122181 5.78758e-05 8.68886e-05
0.00128389 6.44878e-05 9.75798e-05
0.00134149 7.08156e-05 0.000107869
0.00139455 7.61943e-05 0.000117965
0.00144 7.84993e-05 0.000123105
0 0 0
6.94476e-05 9.22822e-06 4.34357e-05
0.000136692 1.5185e-05 5.13361e-05
0.000208525 1.70681e-05 5.13152e-05
0.000284295 1.64454e-05 4.75858e-05
0.000362961 1.51672e-05 4.33774e-05
0.000443612 1.40013e-05 3.99145e-05
0.000525497 1.32628e-05 3.77701e-05
0.000607957 1.3054e-05 3.7178e-05
0.000690371 1.34005e-05 3.82335e-05
0.000772129 1.42993e-05 4.09613e-05
0.000852623 1.57321e-05 4.53359e-05
0.000931257 1.76648e-05 5.12803e-05
0.00100746 2.00427e-05 5.86563e-05
0.00108072 2.27851e-05 6.72519e-05
0.00115058 2.57807e-05 7.67675e-05
0.00121671 2.88825e-05 8.67963e-05
0.00127894 3.19301e-05 9.68246e-05
0.00133744 3.47333e-05 0.000106191
0.00139233 3.68933e-05 0.00011544
0.00144 3.77388e-05 0.000120256
0 0 0
6.92466e-05 1.56442e-19 4.35032e-05
0.00013632 6.07855e-20 5.15869e-05
0.000208008 -2.47258e-19 5.1584e-05
0.000284178 -2.7552e-19 4.79571e-05
0.0003631 -4.35973e-19 4.37789e-05
0.000443815 -7.11462e-19 4.03482e-05
0.000525606 -9.22191e-19 3.82354e-05
0.000607874 -1.22792e-18 3.76698e-05
0.000690046 -1.46683e-18 3.87402e-05
0.000771542 -1.667e-18 4.14676e-05
0.000851774 -2.01394e-18 4.58237e-05
0.000930162 -2.23476e-18 5.17283e-05
0.00100615 -2.49729e-18 5.90389e-05
0.00107922 -2.6902e-18 6.7537e-05
0.00114895 -2.88898e-18 7.69106e-05
0.00121501 -2.86567e-18 8.67286e-05
0.00127733 -2.92311e-18 9.64427e-05
0.00133617 -3.36639e-18 0.000105414
0.00139163 -3.3608e-18 0.000114322
0.00144 -3.4165e-18 0.000119006
0 0 0
6.94476e-05 -9.22822e-06 4.34357e-05
0.000136692 -1.5185e-05 5.13361e-05
0.000208525 -1.70681e-05 5.13152e-05
0.000284295 -1.64454e-05 4.75858e-05
0.000362961 -1.51672e-05 4.33774e-05
0.000443612 -1.40013e-05 3.99145e-05
0.000525497 -1.32628e-05 3.77701e-05
0.000607957 -1.3054e-05 3.7178e-05
0.000690371 -1.34005e-05 3.82335e-05
0.000772129 -1.42993e-05 4.09613e-05
0.000852623 -1.57321e-05 4.53359e-05
0.000931257 -1.76648e-05 5.12803e-05
0.00100746 -2.00427e-05 5.86563e-05
0.00108072 -2.27851e-05 6.72519e-05
0.00115058 -2.57807e-05 7.67675e-05
0.00121671 -2.88825e-05 8.67963e-05
0.00127894 -3.19301e-05 9.68246e-05
0.00133744 -3.47333e-05 0.000106191
0.00139233 -3.68933e-05 0.00011544
0.00144 -3.77388e-05 0.000120256
0 0 0
6.99432e-05 -2.1258e-05 4.2989e-05
0.000139239 -3.25383e-05 5.09336e-05
0.000209666 -3.39232e-05 5.05185e-05
0.000284143 -3.20598e-05 4.67555e-05
0.000362153 -2.93315e-05 4.25006e-05
0.000442775 -2.69849e-05 3.89797e-05
0.000525056 -2.55045e-05 3.67661e-05
0.000608158 -2.5077e-05 3.61153e-05
0.000691334 -2.57634e-05 3.71366e-05
0.000773895 -2.75716e-05 3.98634e-05
0.000855182 -3.04769e-05 4.42755e-05
0.000934561 -3.44216e-05 5.0302e-05
0.00101143 -3.93083e-05 5.78138e-05
0.00108523 -4.49906e-05 6.66132e-05
0.00115549 -5.12661e-05 7.64241e-05
0.00122181 -5.78758e-05 8.68886e-05
0.00128389 -6.44878e-05 9.75798e-05
0.00134149 -7.08156e-05 0.000107869
0.00139455 -7.61943e-05 0.000117965
0.00144 -7.84993e-05 0.000123105
0 0 0
8.05154e-05 -4.34681e-05 4.34681e-05
0.000143456 -4.9968e-05 4.9968e-05
0.000209442 -5.00019e-05 5.00019e-05
0.00028194 -4.63183e-05 4.63183e-05
0.000359554 -4.21095e-05 4.21095e-05
0.000440699 -3.85789e-05 3.85789e-05
0.000523995 -3.63392e-05 3.63392e-05
0.00060836 -3.56617e-05 3.56617e-05
0.000692909 -3.66657e-05 3.66657e-05
0.000776868 -3.9388e-05 3.9388e-05
0.000859518 -4.38109e-05 4.38109e-05
0.000940172 -4.98657e-05 4.98657e-05
0.00101817 -5.74279e-05 5.74279e-05
0.00109291 -6.63062e-05 6.63062e-05
0.00116384 -7.62348e-05 7.62348e-05
0.00123051 -8.68738e-05 8.68738e-05
0.00129254 -9.78548e-05 9.78548e-05
0.00134944 -0.000108606 0.000108606
0.00139988 -0.000119124 0.000119124
0.00144 -0.000124406 0.000124406
0 0 0
6.99432e-05 4.2989e-05 2.1258e-05
0.000139239 5.09336e-05 3.25383e-05
0.000209666 5.05185e-05 3.39232e-05
0.000284143 4.67555e-05 3.20598e-05
0.000362153 4.25006e-05 2.93315e-05
0.000442775 3.89797e-05 2.69849e-05
0.000525056 3.67661e-05 2.55045e-05
0.000608158 3.61153e-05 2.5077e-05
0.000691334 3.71366e-05 2.57634e-05
0.000773895 3.98634e-05 2.75716e-05
0.000855182 4.42755e-05 3.04769e-05
0.000934561 5.0302e-05 3.44216e-05
0.00101143 5.78138e-05 3.93083e-05
0.00108523 6.66132e-05 4.49906e-05
0.00115549 7.64241e-05 5.12661e-05
0.00122181 8.68886e-05 5.78758e-05
0.00128389 9.75798e-05 6.44878e-05
0.00134149 0.000107869 7.08156e-05
0.00139455 0.000117965 7.61943e-05
0.00144 0.000123105 7.84993e-05
0 0 0
5.9251e-05 2.14425e-05 2.14425e-05
0.00013472 3.27157e-05 3.27157e-05
0.000209838 3.39649e-05 3.39649e-05
0.000286305 3.19491e-05 3.19491e-05
0.000364712 2.91455e-05 2.91455e-05
0.000444812 2.67508e-05 2.67508e-05
0.000526083 2.52405e-05 2.52405e-05
0.000607932 2.47947e-05 2.47947e-05
0.000689751 2.54732e-05 2.54732e-05
0.000770932 2.7284e-05 2.7284e-05
0.000850877 3.0203e-05 3.0203e-05
0.000929005 3.41738e-05 3.41738e-05
0.00100477 3.91006e-05 3.91006e-05
0.00107768 4.48395e-05 4.48395e-05
0.00114731 5.11924e-05 5.11924e-05
0.00121336 5.79083e-05 5.79083e-05
0.00127563 6.46754e-05 6.46754e-05
0.001334 7.12373e-05 7.12373e-05
0.00138954 7.68681e-05 7.68681e-05
0.00144 7.92848e-05 7.92848e-05
0 0 0
5.88286e-05 9.28343e-06 2.18024e-05
0.000132027 1.52119e-05 3.33068e-05
0.000208475 1.69603e-05 3.44898e-05
0.000286343 1.62209e-05 3.23652e-05
0.000365446 1.48601e-05 2.94816e-05
0.000445593 1.364e-05 2.70594e-05
0.000526481 1.28618e-05 2.55505e-05
0.000607704 1.26262e-05 2.51165e-05
0.00068878 1.29595e-05 2.58045e-05
0.00076918 1.38602e-05 2.76165e-05
0.000848357 1.53114e-05 3.0525e-05
0.00092577 1.72812e-05 3.44713e-05
0.00100091 1.97181e-05 3.93563e-05
0.00107331 2.25463e-05 4.50309e-05
0.00114262 2.56632e-05 5.1287e-05
0.00120857 2.89407e-05 5.78557e-05
0.00127111 3.22485e-05 6.44067e-05
0.00133044 3.5395e-05 7.07188e-05
0.00138767 3.78689e-05 7.61732e-05
0.00144 3.88411e-05 7.85366e-05
0 0 0
5.86307e-05 -7.70904e-20 2.19725e-05
0.000131585 -1.56202e-19 3.35319e-05
0.000207885 -1.86159e-19 3.47281e-05
0.000286164 -4.68267e-19 3.25813e-05
0.00036555 -5.00133e-19 2.96781e-05
0.00044577 -6.10429e-19 2.72486e-05
0.00052657 -8.18906e-19 2.57442e-05
0.000607609 -1.12628e-18 2.5318e-05
0.000688452 -1.3943e-18 2.60114e-05
0.0007686 -1.55158e-18 2.78233e-05
0.000847527 -1.99467e-18 3.07243e-05
0.000924706 -2.36943e-18 3.46543e-05
0.00099964 -2.64536e-18 3.95121e-05
0.00107188 -2.74241e-18 4.51455e-05
0.00114108 -3.11705e-18 5.13404e-05
0.00120702 -3.20303e-18 5.78178e-05
0.00126969 -3.38584e-18 6.42403e-05
0.00132938 -3.50304e-18 7.04057e-05
0.00138711 -3.3447e-18 7.57432e-05
0.00144 -3.61945e-18 7.80629e-05
0 0 0
5.88286e-05 -9.28343e-06 2.18024e-05
0.000132027 -1.52119e-05 3.33068e-05
0.000208475 -1.69603e-05 3.44898e-05
0.000286343 -1.62209e-05 3.23652e-05
0.000365446 -1.48601e-05 2.94816e-05
0.000445593 -1.364e-05 2.70594e-05
0.000526481 -1.28618e-05 2.55505e-05
0.000607704 -1.26262e-05 2.51165e-05
0.00068878 -1.29595e-05 2.58045e-05
0.00076918 -1.38602e-05 2.76165e-05
0.000848357 -1.53114e-05 3.0525e-05
0.00092577 -1.72812e-05 3.44713e-05
0.00100091 -1.97181e-05 3.93563e-05
0.00107331 -2.25463e-05 4.50309e-05
0.00114262 -2.56632e-05 5.1287e-05
0.00120857 -2.89407e-05 5.78557e-05
0.00127111 -3.22485e-05 6.44067e-05
0.00133044 -3.5395e-05 7.07188e-05
0.00138767 -3.78689e-05 7.61732e-05
0.00144 -3.88411e-05 7.85366e-05
0 0 0
5.9251e-05 -2.14425e-05 2.14425e-05
0.00013472 -3.27157e-05 3.27157e-05
0.000209838 -3.39649e-05 3.39649e-05
0.000286305 -3.19491e-05 3.19491e-05
0.000364712 -2.91455e-05 2.91455e-05
0.000444812 -2.67508e-05 2.67508e-05
0.000526083 -2.52405e-05 2.52405e-05
0.000607932 -2.47947e-05 2.47947e-05
0.000689751 -2.54732e-05 2.54732e-05
0.000770932 -2.7284e-05 2.7284e-05
0.000850877 -3.0203e-05 3.0203e-05
0.000929005 -3.41738e-05 3.41738e-05
0.00100477 -3.91006e-05 3.91006e-05
0.00107768 -4.48395e-05 4.48395e-05
0.00114731 -5.11924e-05 5.11924e-05
0.00121336 -5.79083e-05 5.79083e-05
0.00127563 -6.46754e-05 6.46754e-05
0.001334 -7.12373e-05 7.12373e-05
0.00138954 -7.68681e-05 7.68681e-05
0.00144 -7.92848e-05 7.92848e-05
0 0 0
6.99432e-05 -4.2989e-05 2.1258e-05
0.000139239 -5.09336e-05 3.25383e-05
0.000209666 -5.05185e-05 3.39232e-05
0.000284143 -4.67555e-05 3.20598e-05
0.000362153 -4.25006e-05 2.93315e-05
0.000442775 -3.89797e-05 2.69849e-05
0.000525056 -3.67661e-05 2.55045e-05
0.000608158 -3.61153e-05 2.5077e-05
0.000691334 -3.71366e-05 2.57634e-05
0.000773895 -3.98634e-05 2.75716e-05
0.000855182 -4.42755e-05 3.04769e-05
0.000934561 -5.0302e-05 3.44216e-05
0.00101143 -5.78138e-05 3.93083e-05
0.00108523 -6.66132e-05 4.49906e-05
0.00115549 -7.64241e-05 5.12661e-05
0.00122181 -8.68886e-05 5.78758e-05
0.00128389 -9.75798e-05 6.44878e-05
0.00134149 -0.000107869 7.08156e-05
0.00139455 -0.000117965 7.61943e-05
0.00144 -0.000123105 7.84993e-05
0 0 0
6.94476e-05 4.34357e-05 9.22822e-06
0.000136692 5.13361e-05 1.5185e-05
0.000208525 5.13152e-05 1.70681e-05
0.000284295 4.75858e-05 1.64454e-05
0.000362961 4.33774e-05 1.51672e-05
0.000443612 3.99145e-05 1.40013e-05
0.000525497 3.77701e-05 1.32628e-05
0.000607957 3.7178e-05 1.3054e-05
0.000690371 3.82335e-05 1.34005e-05
0.000772129 4.09613e-05 1.42993e-05
0.000852623 4.53359e-05 1.57321e-05
0.000931257 5.12803e-05 1.76648e-05
0.00100746 5.86563e-05 2.00427e-05
0.00108072 6.72519e-05 2.27851e-05
0.00115058 7.67675e-05 2.57807e-05
0.00121671 8.67963e-05 2.88825e-05
0.00127894 9.68246e-05 3.19301e-05
0.00133744 0.000106191 3.47333e-05
0.00139233 0.00011544 3.68933e-05
0.00144 0.000120256 3.77388e-05
0 0 0
5.88286e-05 2.18024e-05 9.28343e-06
0.000132027 3.33068e-05 1.52119e-05
0.000208475 3.44898e-05 1.69603e-05
0.000286343 3.23652e-05 1.62209e-05
0.000365446 2.94816e-05 1.48601e-05
0.000445593 2.70594e-05 1.364e-05
0.000526481 2.55505e-05 1.28618e-05
0.000607704 2.51165e-05 1.26262e-05
0.00068878 2.58045e-05 1.29595e-05
0.00076918 2.76165e-05 1.38602e-05
0.000848357 3.0525e-05 1.53114e-05
0.00092577 3.44713e-05 1.72812e-05
0.00100091 3.93563e-05 1.97181e-05
0.00107331 4.50309e-05 2.25463e-05
0.00114262 5.1287e-05 2.56632e-05
0.00120857 5.78557e-05 2.89407e-05
0.00127111 6.44067e-05 3.22485e-05
0.00133044 7.07188e-05 3.5395e-05
0.00138767 7.61732e-05 3.78689e-05
0.00144 7.85366e-05 3.88411e-05
0 0 0
5.84308e-05 9.49877e-06 9.49877e-06
0.000129261 1.54701e-05 1.54701e-05
0.000207001 1.71904e-05 1.71904e-05
0.000286268 1.6376e-05 1.6376e-05
0.000366115 1.49575e-05 1.49575e-05
0.000446337 1.37057e-05 1.37057e-05
0.000526858 1.29156e-05 1.29156e-05
0.000607466 1.26776e-05 1.26776e-05
0.000687807 1.30116e-05 1.30116e-05
0.000767434 1.39128e-05 1.39128e-05
0.000845852 1.53629e-05 1.53629e-05
0.00092256 1.73293e-05 1.73293e-05
0.000997085 1.97596e-05 1.97596e-05
0.00106901 2.25768e-05 2.25768e-05
0.00113801 2.56758e-05 2.56758e-05
0.0012039 2.89254e-05 2.89254e-05
0.00126673 3.21983e-05 3.21983e-05
0.00132704 3.53163e-05 3.53163e-05
0.00138592 3.77806e-05 3.77806e-05
0.00144 3.87537e-05 3.87537e-05
0 0 0
5.82485e-05 -7.42477e-20 9.5854e-06
0.000128808 -2.92026e-19 1.56016e-05
0.000206361 -2.77614e-19 1.73094e-05
0.000286049 -3.333e-19 1.64703e-05
0.00036619 -4.93001e-19 1.50304e-05
0.0004465 -6.72173e-19 1.37679e-05
0.00052694 -8.75229e-19 1.29749e-05
0.000607368 -1.1101e-18 1.27377e-05
0.000687478 -1.4476e-18 1.30729e-05
0.000766856 -1.81722e-18 1.39741e-05
0.000845027 -2.07778e-18 1.54221e-05
0.000921505 -2.37757e-18 1.73837e-05
0.00099583 -2.72014e-18 1.98058e-05
0.0010676 -3.06194e-18 2.26102e-05
0.0011365 -3.12653e-18 2.56897e-05
0.00120238 -3.42196e-18 2.89105e-05
0.00126536 -3.47042e-18 3.21453e-05
0.00132603 -3.5565e-18 3.52247e-05
0.0013854 -3.73344e-18 3.76626e-05
0.00144 -3.87054e-18 3.86269e-05
0 0 0
5.84308e-05 -9.49877e-06 9.49877e-06
0.000129261 -1.54701e-05 1.54701e-05
0.000207001 -1.71904e-05 1.71904e-05
0.000286268 -1.6376e-05 1.6376e-05
0.000366115 -1.49575e-05 1.49575e-05
0.000446337 -1.37057e-05 1.37057e-05
0.000526858 -1.29156e-05 1.29156e-05
0.000607466 -1.26776e-05 1.26776e-05
0.000687807 -1.30116e-05 1.30116e-05
0.000767434 -1.39128e-05 1.39128e-05
0.000845852 -1.53629e-05 1.53629e-05
0.00092256 -1.73293e-05 1.73293e-05
0.000997085 -1.97596e-05 1.97596e-05
0.00106901 -2.25768e-05 2.25768e-05
0.00113801 -2.56758e-05 2.56758e-05
0.0012039 -2.89254e-05 2.89254e-05
0.00126673 -3.21983e-05 3.21983e-05
0.00132704 -3.53163e-05 3.53163e-05
0.00138592 -3.77806e-05 3.77806e-05
0.00144 -3.87537e-05 3.87537e-05
0 0 0
5.88286e-05 -2.18024e-05 9.28343e-06
0.000132027 -3.33068e-05 1.52119e-05
0.000208475 -3.44898e-05 1.69603e-05
0.000286343 -3.23652e-05 1.62209e-05
0.000365446 -2.94816e-05 1.48601e-05
0.000445593 -2.70594e-05 1.364e-05
0.000526481 -2.55505e-05 1.28618e-05
0.000607704 -2.51165e-05 1.26262e-05
0.00068878 -2.58045e-05 1.29595e-05
0.00076918 -2.76165e-05 1.38602e-05
0.000848357 -3.0525e-05 1.53114e-05
0.00092577 -3.44713e-05 1.72812e-05
0.00100091 -3.93563e-05 1.97181e-05
0.00107331 -4.50309e-05 2.25463e-05
0.00114262 -5.1287e-05 2.56632e-05
0.00120857 -5.78557e-05 2.89407e-05
0.00127111 -6.44067e-05 3.22485e-05
0.00133044 -7.07188e-05 3.5395e-05
0.00138767 -7.61732e-05 3.78689e-05
0.00144 -7.85366e-05 3.88411e-05
0 0 0
6.94476e-05 -4.34357e-05 9.22822e-06
0.000136692 -5.13361e-05 1.5185e-05
0.000208525 -5.13152e-05 1.70681e-05
0.000284295 -4.75858e-05 1.64454e-05
0.000362961 -4.33774e-05 1.51672e-05
0.000443612 -3.99145e-05 1.40013e-05
0.000525497 -3.77701e-05 1.32628e-05
0.000607957 -3.7178e-05 1.3054e-05
0.000690371 -3.82335e-05 1.34005e-05
0.000772129 -4.09613e-05 1.42993e-05
0.000852623 -4.53359e-05 1.57321e-05
0.000931257 -5.12803e-05 1.76648e-05
0.00100746 -5.86563e-05 2.00427e-05
0.00108072 -6.72519e-05 2.27851e-05
0.00115058 -7.67675e-05 2.57807e-05
0.00121671 -8.67963e-05 2.88825e-05
0.00127894 -9.68246e-05 3.19301e-05
0.00133744 -0.000106191 3.47333e-05
0.00139233 -0.00011544 3.68933e-05
0.00144 -0.000120256 3.77388e-05
0 0 0
6.92466e-05 4.35032e-05 -1.19875e-19
0.00013632 5.15869e-05 -1.49924e-19
0.000208008 5.1584e-05 6.65474e-22
0.000284178 4.79571e-05 -2.68609e-19
0.0003631 4.37789e-05 -3.26876e-19
0.000443815 4.03482e-05 -3.02048e-19
0.000525606 3.82354e-05 -2.70621e-19
0.000607874 3.76698e-05 -3.99578e-19
0.000690046 3.87402e-05 -4.20307e-19
0.000771542 4.14676e-05 -6.5789e-19
0.000851774 4.58237e-05 -6.72355e-19
0.000930162 5.17283e-05 -9.08212e-19
0.00100615 5.90389e-05 -8.48541e-19
0.00107922 6.7537e-05 -1.10441e-18
0.00114895 7.69106e-05 -7.61418e-19
0.00121501 8.67286e-05 -7.00098e-19
0.00127733 9.64427e-05 -6.55832e-19
0.00133617 0.000105414 -6.89876e-19
0.00139163 0.000114322 -6.89396e-19
0.00144 0.000119006 -6.12182e-19
0 0 0
5.86307e-05 2.19725e-05 -8.40841e-21
0.000131585 3.35319e-05 -8.21498e-20
0.000207885 3.47281e-05 -2.38972e-20
0.000286164 3.25813e-05 -1.10825e-19
0.00036555 2.96781e-05 -1.02838e-19
0.00044577 2.72486e-05 -1.79186e-19
0.00052657 2.57442e-05 -2.48614e-19
0.000607609 2.5318e-05 -4.25786e-19
0.000688452 2.60114e-05 -3.87303e-19
0.0007686 2.78233e-05 -4.78325e-19
0.000847527 3.07243e-05 -6.9615e-19
0.000924706 3.46543e-05 -7.7082e-19
0.00099964 3.95121e-05 -6.88127e-19
0.00107188 4.51455e-05 -6.6759e-19
0.00114108 5.13404e-05 -3.96818e-19
0.00120702 5.78178e-05 -5.035e-19
0.00126969 6.42403e-05 -4.7217e-19
0.00132938 7.04057e-05 -3.71933e-19
0.00138711 7.57432e-05 -4.11098e-19
0.00144 7.80629e-05 -3.09156e-19
0 0 0
5.82485e-05 9.5854e-06 3.88375e-21
0.000128808 1.56016e-05 5.54763e-20
0.000206361 1.73094e-05 -4.45089e-21
0.000286049 1.64703e-05 -9.21633e-21
0.00036619 1.50304e-05 -2.36618e-19
0.0004465 1.37679e-05 -3.22132e-20
0.00052694 1.29749e-05 -1.38035e-19
0.000607368 1.27377e-05 -2.32926e-19
0.000687478 1.30729e-05 -3.49333e-19
0.000766856 1.39741e-05 -6.97267e-19
0.000845027 1.54221e-05 -6.2947e-19
0.000921505 1.73837e-05 -6.17372e-19
0.00099583 1.98058e-05 -5.03269e-19
0.0010676 2.26102e-05 -5.26066e-19
0.0011365 2.56897e-05 -3.51651e-19
0.00120238 2.89105e-05 -1.13738e-19
0.00126536 3.21453e-05 -1.06396e-19
0.00132603 3.52247e-05 -2.73603e-19
0.0013854 3.76626e-05 -7.24982e-20
0.00144 3.86269e-05 -1.13373e-19
0 0 0
5.80645e-05 -2.2222e-19 6.8632e-20
0.000128347 -1.22174e-19 8.36492e-20
0.000205709 -3.35417e-19 -4.46476e-20
0.000285815 -2.95484e-19 1.1743e-20
0.000366256 -5.27636e-19 -6.12328e-20
0.000446657 -7.61283e-19 -1.74464e-19
0.00052702 -9.43978e-19 -3.55772e-19
0.000607268 -1.16285e-18 -1.66761e-19
0.000687149 -1.59138e-18 -2.42007e-19
0.000766278 -1.89627e-18 -2.43242e-19
0.000844202 -2.13484e-18 -4.14291e-19
0.000920452 -2.60445e-18 -4.37468e-19
0.000994578 -2.83789e-18 -4.29586e-19
0.00106619 -3.27784e-18 -3.44046e-19
0.001135 -3.46745e-18 -1.35133e-19
0.00120087 -3.73388e-18 -6.44896e-20
0.001264 -3.93194e-18 2.82761e-20
0.00132503 -3.97477e-18 2.09283e-20
0.00138489 -4.03349e-18 8.93444e-20
0.00144 -3.97898e-18 2.4823e-19
0 0 0
5.82485e-05 -9.5854e-06 1.08847e-19
0.000128808 -1.56016e-05 5.43706e-20
0.000206361 -1.73094e-05 4.90138e-20
0.000286049 -1.64703e-05 3.02154e-20
0.00036619 -1.50304e-05 1.84256e-20
0.0004465 -1.37679e-05 7.50587e-21
0.00052694 -1.29749e-05 -1.71671e-19
0.000607368 -1.27377e-05 -1.2119e-19
0.000687478 -1.30729e-05 -8.28292e-20
0.000766856 -1.39741e-05 -3.79922e-19
0.000845027 -1.54221e-05 -2.76086e-19
0.000921505 -1.73837e-05 -3.99348e-19
0.00099583 -1.98058e-05 -1.18604e-19
0.0010676 -2.26102e-05 -6.60881e-20
0.0011365 -2.56897e-05 9.97678e-21
0.00120238 -2.89105e-05 1.62511e-19
0.00126536 -3.21453e-05 2.3684e-19
0.00132603 -3.52247e-05 3.99494e-19
0.0013854 -3.76626e-05 4.44059e-19
0.00144 -3.86269e-05 4.06933e-19
0 0 0
5.86307e-05 -2.19725e-05 1.05897e-19
0.000131585 -3.35319e-05 1.06648e-19
0.000207885 -3.47281e-05 1.70725e-20
0.000286164 -3.25813e-05 2.40075e-20
0.00036555 -2.96781e-05 7.23193e-20
0.00044577 -2.72486e-05 2.01152e-20
0.00052657 -2.57442e-05 -3.30132e-21
0.000607609 -2.5318e-05 -8.28861e-20
0.000688452 -2.60114e-05 6.11556e-20
0.0007686 -2.78233e-05 -3.40822e-20
0.000847527 -3.07243e-05 -2.2363e-19
0.000924706 -3.46543e-05 -1.34376e-19
0.00099964 -3.95121e-05 1.76727e-20
0.00107188 -4.51455e-05 -2.15469e-21
0.00114108 -5.13404e-05 2.31118e-19
0.00120702 -5.78178e-05 3.3403e-19
0.00126969 -6.42403e-05 3.32211e-19
0.00132938 -7.04057e-05 3.7445e-19
0.00138711 -7.57432e-05 4.82119e-19
0.00144 -7.80629e-05 5.66305e-19
0 0 0
6.92466e-05 -4.35032e-05 -1.3174e-19
0.00013632 -5.15869e-05 -3.18247e-20
0.000208008 -5.1584e-05 1.34924e-20
0.000284178 -4.79571e-05 1.43548e-19
0.0003631 -4.37789e-05 5.15758e-20
0.000443815 -4.03482e-05 1.79427e-19
0.000525606 -3.82354e-05 1.04952e-19
0.000607874 -3.76698e-05 2.4416e-19
0.000690046 -3.87402e-05 3.38898e-19
0.000771542 -4.14676e-05 2.65887e-19