<?xml version="1.0"?>
<VTKFile type="UnstructuredGrid" version="0.1" byte_order="LittleEndian">
<UnstructuredGrid>
<Piece NumberOfPoints="1029" NumberOfCells="720">
<Points>
<DataArray type="Float32" NumberOfComponents="3" format="ascii">
0 0 0
0.005 0 0
0.01 0 0
0.015 0 0
0.02 0 0
0.025 0 0
0.03 0 0
0.035 0 0
0.04 0 0
0.045 0 0
0.05 0 0
0.055 0 0
0.06 0 0
0.065 0 0
0.07 0 0
0.075 0 0
0.08 0 0
0.085 0 0
0.09 0 0
0.095 0 0
0.1 0 0
0 0.005 0
0.005 0.005 0
0.01 0.005 0
0.015 0.005 0
0.02 0.005 0
0.025 0.005 0
0.03 0.005 0
0.035 0.005 0
0.04 0.005 0
0.045 0.005 0
0.05 0.005 0
0.055 0.005 0
0.06 0.005 0
0.065 0.005 0
0.07 0.005 0
0.075 0.005 0
0.08 0.005 0
0.085 0.005 0
0.09 0.005 0
0.095 0.005 0
0.1 0.005 0
0 0.01 0
0.005 0.01 0
0.01 0.01 0
0.015 0.01 0
0.02 0.01 0
0.025 0.01 0
0.03 0.01 0
0.035 0.01 0
0.04 0.01 0
0.045 0.01 0
0.05 0.01 0
0.055 0.01 0
0.06 0.01 0
0.065 0.01 0
0.07 0.01 0
0.075 0.01 0
0.08 0.01 0
0.085 0.01 0
0.09 0.01 0
0.095 0.01 0
0.1 0.01 0
0 0.015 0
0.005 0.015 0
0.01 0.015 0
0.015 0.015 0
0.02 0.015 0
0.025 0.015 0
0.03 0.015 0
0.035 0.015 0
0.04 0.015 0
0.045 0.015 0
0.05 0.015 0
0.055 0.015 0
0.06 0.015 0
0.065 0.015 0
0.07 0.015 0
0.075 0.015 0
0.08 0.015 0
0.085 0.015 0
0.09 0.015 0
0.095 0.015 0
0.1 0.015 0
0 0.02 0
0.005 0.02 0
0.01 0.02 0
0.015 0.02 0
0.02 0.02 0
0.025 0.02 0
0.03 0.02 0
0.035 0.02 0
0.04 0.02 0
0.045 0.02 0
0.05 0.02 0
0.055 0.02 0
0.06 0.02 0
0.065 0.02 0
0.07 0.02 0
0.075 0.02 0
0.08 0.02 0
0.085 0.02 0
0.09 0.02 0
0.095 0.02 0
0.1 0.02 0
0 0.025 0
0.005 0.025 0
0.01 0.025 0
0.015 0.025 0
0.02 0.025 0
0.025 0.025 0
0.03 0.025 0
0.035 0.025 0
0.04 0.025 0
0.045 0.025 0
0.05 0.025 0
0.055 0.025 0
0.06 0.025 0
0.065 0.025 0
0.07 0.025 0
0.075 0.025 0
0.08 0.025 0
0.085 0.025 0
0.09 0.025 0
0.095 0.025 0
0.1 0.025 0
0 0.03 0
0.005 0.03 0
0.01 0.03 0
0.015 0.03 0
0.02 0.03 0
0.025 0.03 0
0.03 0.03 0
0.035 0.03 0
0.04 0.03 0
0.045 0.03 0
0.05 0.03 0
0.055 0.03 0
0.06 0.03 0
0.065 0.03 0
0.07 0.03 0
0.075 0.03 0
0.08 0.03 0
0.085 0.03 0
0.09 0.03 0
0.095 0.03 0
0.1 0.03 0
0 0 0.005
0.005 0 0.005
0.01 0 0.005
0.015 0 0.005
0.02 0 0.005
0.025 0 0.005
0.03 0 0.005
0.035 0 0.005
0.04 0 0.005
0.045 0 0.005
0.05 0 0.005
0.055 0 0.005
0.06 0 0.005
0.065 0 0.005
0.07 0 0.005
0.075 0 0.005
0.08 0 0.005
0.085 0 0.005
0.09 0 0.005
0.095 0 0.005
0.1 0 0.005
0 0.005 0.005
0.005 0.005 0.005
0.01 0.005 0.005
0.015 0.005 0.005
0.02 0.005 0.005
0.025 0.005 0.005
0.03 0.005 0.005
0.035 0.005 0.005
0.04 0.005 0.005
0.045 0.005 0.005
0.05 0.005 0.005
0.055 0.005 0.005
0.06 0.005 0.005
0.065 0.005 0.005
0.07 0.005 0.005
0.075 0.005 0.005
0.08 0.005 0.005
0.085 0.005 0.005
0.09 0.005 0.005
0.095 0.005 0.005
0.1 0.005 0.005
0 0.01 0.005
0.005 0.01 0.005
0.01 0.01 0.005
0.015 0.01 0.005
0.02 0.01 0.005
0.025 0.01 0.005
0.03 0.01 0.005
0.035 0.01 0.005
0.04 0.01 0.005
0.045 0.01 0.005
0.05 0.01 0.005
0.055 0.01 0.005
0.06 0.01 0.005
0.065 0.01 0.005
0.07 0.01 0.005
0.075 0.01 0.005
0.08 0.01 0.005
0.085 0.01 0.005
0.09 0.01 0.005
0.095 0.01 0.005
0.1 0.01 0.005
0 0.015 0.005
0.005 0.015 0.005
0.01 0.015 0.005
0.015 0.015 0.005
0.02 0.015 0.005
0.025 0.015 0.005
0.03 0.015 0.005
0.035 0.015 0.005
0.04 0.015 0.005
0.045 0.015 0.005
0.05 0.015 0.005
0.055 0.015 0.005
0.06 0.015 0.005
0.065 0.015 0.005
0.07 0.015 0.005
0.075 0.015 0.005
0.08 0.015 0.005
0.085 0.015 0.005
0.09 0.015 0.005
0.095 0.015 0.005
0.1 0.015 0.005
0 0.02 0.005
0.005 0.02 0.005
0.01 0.02 0.005
0.015 0.02 0.005
0.02 0.02 0.005
0.025 0.02 0.005
0.03 0.02 0.005
0.035 0.02 0.005
0.04 0.02 0.005
0.045 0.02 0.005
0.05 0.02 0.005
0.055 0.02 0.005
0.06 0.02 0.005
0.065 0.02 0.005
0.07 0.02 0.005
0.075 0.02 0.005
0.08 0.02 0.005
0.085 0.02 0.005
0.09 0.02 0.005
0.095 0.02 0.005
0.1 0.02 0.005
0 0.025 0.005
0.005 0.025 0.005
0.01 0.025 0.005
0.015 0.025 0.005
0.02 0.025 0.005
0.025 0.025 0.005
0.03 0.025 0.005
0.035 0.025 0.005
0.04 0.025 0.005
0.045 0.025 0.005
0.05 0.025 0.005
0.055 0.025 0.005
0.06 0.025 0.005
0.065 0.025 0.005
0.07 0.025 0.005
0.075 0.025 0.005
0.08 0.025 0.005
0.085 0.025 0.005
0.09 0.025 0.005
0.095 0.025 0.005
0.1 0.025 0.005
0 0.03 0.005
0.005 0.03 0.005
0.01 0.03 0.005
0.015 0.03 0.005
0.02 0.03 0.005
0.025 0.03 0.005
0.03 0.03 0.005
0.035 0.03 0.005
0.04 0.03 0.005
0.045 0.03 0.005
0.05 0.03 0.005
0.055 0.03 0.005
0.06 0.03 0.005
0.065 0.03 0.005
0.07 0.03 0.005
0.075 0.03 0.005
0.08 0.03 0.005
0.085 0.03 0.005
0.09 0.03 0.005
0.095 0.03 0.005
0.1 0.03 0.005
0 0 0.01
0.005 0 0.01
0.01 0 0.01
0.015 0 0.01
0.02 0 0.01
0.025 0 0.01
0.03 0 0.01
0.035 0 0.01
0.04 0 0.01
0.045 0 0.01
0.05 0 0.01
0.055 0 0.01
0.06 0 0.01
0.065 0 0.01
0.07 0 0.01
0.075 0 0.01
0.08 0 0.01
0.085 0 0.01
0.09 0 0.01
0.095 0 0.01
0.1 0 0.01
0 0.005 0.01
0.005 0.005 0.01
0.01 0.005 0.01
0.015 0.005 0.01
0.02 0.005 0.01
0.025 0.005 0.01
0.03 0.005 0.01
0.035 0.005 0.01
0.04 0.005 0.01
0.045 0.005 0.01
0.05 0.005 0.01
0.055 0.005 0.01
0.06 0.005 0.01
0.065 0.005 0.01
0.07 0.005 0.01
0.075 0.005 0.01
0.08 0.005 0.01
0.085 0.005 0.01
0.09 0.005 0.01
0.095 0.005 0.01
0.1 0.005 0.01
0 0.01 0.01
0.005 0.01 0.01
0.01 0.01 0.01
0.015 0.01 0.01
0.02 0.01 0.01
0.025 0.01 0.01
0.03 0.01 0.01
0.035 0.01 0.01
0.04 0.01 0.01
0.045 0.01 0.01
0.05 0.01 0.01
0.055 0.01 0.01
0.06 0.01 0.01
0.065 0.01 0.01
0.07 0.01 0.01
0.075 0.01 0.01
0.08 0.01 0.01
0.085 0.01 0.01
0.09 0.01 0.01
0.095 0.01 0.01
0.1 0.01 0.01
0 0.015 0.01
0.005 0.015 0.01
0.01 0.015 0.01
0.015 0.015 0.01
0.02 0.015 0.01
0.025 0.015 0.01
0.03 0.015 0.01
0.035 0.015 0.01
0.04 0.015 0.01
0.045 0.015 0.01
0.05 0.015 0.01
0.055 0.015 0.01
0.06 0.015 0.01
0.065 0.015 0.01
0.07 0.015 0.01
0.075 0.015 0.01
0.08 0.015 0.01
0.085 0.015 0.01
0.09 0.015 0.01
0.095 0.015 0.01
0.1 0.015 0.01
0 0.02 0.01
0.005 0.02 0.01
0.01 0.02 0.01
0.015 0.02 0.01
0.02 0.02 0.01
0.025 0.02 0.01
0.03 0.02 0.01
0.035 0.02 0.01
0.04 0.02 0.01
0.045 0.02 0.01
0.05 0.02 0.01
0.055 0.02 0.01
0.06 0.02 0.01
0.065 0.02 0.01
0.07 0.02 0.01
0.075 0.02 0.01
0.08 0.02 0.01
0.085 0.02 0.01
0.09 0.02 0.01
0.095 0.02 0.01
0.1 0.02 0.01
0 0.025 0.01
0.005 0.025 0.01
0.01 0.025 0.01
0.015 0.025 0.01
0.02 0.025 0.01
0.025 0.025 0.01
0.03 0.025 0.01
0.035 0.025 0.01
0.04 0.025 0.01
0.045 0.025 0.01
0.05 0.025 0.01
0.055 0.025 0.01
0.06 0.025 0.01
0.065 0.025 0.01
0.07 0.025 0.01
0.075 0.025 0.01
0.08 0.025 0.01
0.085 0.025 0.01
0.09 0.025 0.01
0.095 0.025 0.01
0.1 0.025 0.01
0 0.03 0.01
0.005 0.03 0.01
0.01 0.03 0.01
0.015 0.03 0.01
0.02 0.03 0.01
0.025 0.03 0.01
0.03 0.03 0.01
0.035 0.03 0.01
0.04 0.03 0.01
0.045 0.03 0.01
0.05 0.03 0.01
0.055 0.03 0.01
0.06 0.03 0.01
0.065 0.03 0.01
0.07 0.03 0.01
0.075 0.03 0.01
0.08 0.03 0.01
0.085 0.03 0.01
0.09 0.03 0.01
0.095 0.03 0.01
0.1 0.03 0.01
0 0 0.015
0.005 0 0.015
0.01 0 0.015
0.015 0 0.015
0.02 0 0.015
0.025 0 0.015
0.03 0 0.015
0.035 0 0.015
0.04 0 0.015
0.045 0 0.015
0.05 0 0.015
0.055 0 0.015
0.06 0 0.015
0.065 0 0.015
0.07 0 0.015
0.075 0 0.015
0.08 0 0.015
0.085 0 0.015
0.09 0 0.015
0.095 0 0.015
0.1 0 0.015
0 0.005 0.015
0.005 0.005 0.015
0.01 0.005 0.015
0.015 0.005 0.015
0.02 0.005 0.015
0.025 0.005 0.015
0.03 0.005 0.015
0.035 0.005 0.015
0.04 0.005 0.015
0.045 0.005 0.015
0.05 0.005 0.015
0.055 0.005 0.015
0.06 0.005 0.015
0.065 0.005 0.015
0.07 0.005 0.015
0.075 0.005 0.015
0.08 0.005 0.015
0.085 0.005 0.015
0.09 0.005 0.015
0.095 0.005 0.015
0.1 0.005 0.015
0 0.01 0.015
0.005 0.01 0.015
0.01 0.01 0.015
0.015 0.01 0.015
0.02 0.01 0.015
0.025 0.01 0.015
0.03 0.01 0.015
0.035 0.01 0.015
0.04 0.01 0.015
0.045 0.01 0.015
0.05 0.01 0.015
0.055 0.01 0.015
0.06 0.01 0.015
0.065 0.01 0.015
0.07 0.01 0.015
0.075 0.01 0.015
0.08 0.01 0.015
0.085 0.01 0.015
0.09 0.01 0.015
0.095 0.01 0.015
0.1 0.01 0.015
0 0.015 0.015
0.005 0.015 0.015
0.01 0.015 0.015
0.015 0.015 0.015
0.02 0.015 0.015
0.025 0.015 0.015
0.03 0.015 0.015
0.035 0.015 0.015
0.04 0.015 0.015
0.045 0.015 0.015
0.05 0.015 0.015
0.055 0.015 0.015
0.06 0.015 0.015
0.065 0.015 0.015
0.07 0.015 0.015
0.075 0.015 0.015
0.08 0.015 0.015
0.085 0.015 0.015
0.09 0.015 0.015
0.095 0.015 0.015
0.1 0.015 0.015
0 0.02 0.015
0.005 0.02 0.015
0.01 0.02 0.015
0.015 0.02 0.015
0.02 0.02 0.015
0.025 0.02 0.015
0.03 0.02 0.015
0.035 0.02 0.015
0.04 0.02 0.015
0.045 0.02 0.015
0.05 0.02 0.015
0.055 0.02 0.015
0.06 0.02 0.015
0.065 0.02 0.015
0.07 0.02 0.015
0.075 0.02 0.015
0.08 0.02 0.015
0.085 0.02 0.015
0.09 0.02 0.015
0.095 0.02 0.015
0.1 0.02 0.015
0 0.025 0.015
0.005 0.025 0.015
0.01 0.025 0.015
0.015 0.025 0.015
0.02 0.025 0.015
0.025 0.025 0.015
0.03 0.025 0.015
0.035 0.025 0.015
0.04 0.025 0.015
0.045 0.025 0.015
0.05 0.025 0.015
0.055 0.025 0.015
0.06 0.025 0.015
0.065 0.025 0.015
0.07 0.025 0.015
0.075 0.025 0.015
0.08 0.025 0.015
0.085 0.025 0.015
0.09 0.025 0.015
0.095 0.025 0.015
0.1 0.025 0.015
0 0.03 0.015
0.005 0.03 0.015
0.01 0.03 0.015
0.015 0.03 0.015
0.02 0.03 0.015
0.025 0.03 0.015
0.03 0.03 0.015
0.035 0.03 0.015
0.04 0.03 0.015
0.045 0.03 0.015
0.05 0.03 0.015
0.055 0.03 0.015
0.06 0.03 0.015
0.065 0.03 0.015
0.07 0.03 0.015
0.075 0.03 0.015
0.08 0.03 0.015
0.085 0.03 0.015
0.09 0.03 0.015
0.095 0.03 0.015
0.1 0.03 0.015
0 0 0.02
0.005 0 0.02
0.01 0 0.02
0.015 0 0.02
0.02 0 0.02
0.025 0 0.02
0.03 0 0.02
0.035 0 0.02
0.04 0 0.02
0.045 0 0.02
0.05 0 0.02
0.055 0 0.02
0.06 0 0.02
0.065 0 0.02
0.07 0 0.02
0.075 0 0.02
0.08 0 0.02
0.085 0 0.02
0.09 0 0.02
0.095 0 0.02
0.1 0 0.02
0 0.005 0.02
0.005 0.005 0.02
0.01 0.005 0.02
0.015 0.005 0.02
0.02 0.005 0.02
0.025 0.005 0.02
0.03 0.005 0.02
0.035 0.005 0.02
0.04 0.005 0.02
0.045 0.005 0.02
0.05 0.005 0.02
0.055 0.005 0.02
0.06 0.005 0.02
0.065 0.005 0.02
0.07 0.005 0.02
0.075 0.005 0.02
0.08 0.005 0.02
0.085 0.005 0.02
0.09 0.005 0.02
0.095 0.005 0.02
0.1 0.005 0.02
0 0.01 0.02
0.005 0.01 0.02
0.01 0.01 0.02
0.015 0.01 0.02
0.02 0.01 0.02
0.025 0.01 0.02
0.03 0.01 0.02
0.035 0.01 0.02
0.04 0.01 0.02
0.045 0.01 0.02
0.05 0.01 0.02
0.055 0.01 0.02
0.06 0.01 0.02
0.065 0.01 0.02
0.07 0.01 0.02
0.075 0.01 0.02
0.08 0.01 0.02
0.085 0.01 0.02
0.09 0.01 0.02
0.095 0.01 0.02
[...]
<PointData Vectors="Displacement">
<DataArray type="Float32" Name="Displacement" NumberOfComponents="3" format="ascii">
0 0 0
5.73141e-05 3.12317e-05 3.12317e-05
0.000102162 3.48684e-05 3.48684e-05
0.000150179 3.34452e-05 3.34452e-05
0.000203788 2.93311e-05 2.93311e-05
0.000261816 2.50159e-05 2.50159e-05
0.000322955 2.14791e-05 2.14791e-05
0.000386045 1.92381e-05 1.92381e-05
0.000450133 1.85423e-05 1.85423e-05
0.000514399 1.95138e-05 1.95138e-05
0.000578101 2.21989e-05 2.21989e-05
0.000640529 2.65894e-05 2.65894e-05
0.000700998 3.26243e-05 3.26243e-05
0.000758847 4.01841e-05 4.01841e-05
0.000813456 4.90798e-05 4.90798e-05
0.000864274 5.90446e-05 5.90446e-05
0.00091085 6.97338e-05 6.97338e-05
0.00095279 8.07706e-05 8.07706e-05
0.000989589 9.15717e-05 9.15717e-05
0.00101994 0.000102127 0.000102127
0.00104 0.000107424 0.000107424
0 0 0
5.01059e-05 1.489e-05 3.07336e-05
0.000100061 2.24527e-05 3.54654e-05
0.000151465 2.26848e-05 3.38054e-05
0.00020646 2.05199e-05 2.96906e-05
0.0002646 1.77998e-05 2.53778e-05
0.000325103 1.55138e-05 2.18712e-05
0.000387142 1.40744e-05 1.96651e-05
0.000449959 1.36579e-05 1.89994e-05
0.000512851 1.4335e-05 1.99899e-05
0.00057515 1.61254e-05 2.26806e-05
0.000636206 1.90132e-05 2.70612e-05
0.000695386 2.29467e-05 3.30683e-05
0.000752085 2.78317e-05 4.05777e-05
0.000805745 3.35228e-05 4.93935e-05
0.000855879 3.98163e-05 5.92382e-05
0.000902094 4.64504e-05 6.97491e-05
0.000944088 5.30885e-05 8.04912e-05
0.0009816 5.94406e-05 9.08266e-05
0.00101459 6.48361e-05 0.000100957
0.00104 6.71467e-05 0.00010611
0 0 0
4.99724e-05 6.35633e-06 3.07988e-05
9.86997e-05 1.03582e-05 3.55444e-05
0.000151243 1.13951e-05 3.43263e-05
0.000207165 1.05961e-05 3.03716e-05
0.000265688 9.34104e-06 2.61833e-05
0.000326067 8.23197e-06 2.27786e-05
0.000387639 7.53229e-06 2.06627e-05
0.000449786 7.33981e-06 2.0066e-05
0.000511906 7.68756e-06 2.10959e-05
0.000573397 8.58059e-06 2.37911e-05
0.000633654 1.00064e-05 2.81367e-05
0.000692082 1.19342e-05 3.4063e-05
0.000748111 1.43112e-05 4.14361e-05
0.000801217 1.70569e-05 5.00455e-05
0.00085095 2.00592e-05 5.95897e-05
0.000896971 2.317e-05 6.9657e-05
0.000939114 2.62274e-05 7.97268e-05
0.000977536 2.90395e-05 8.91316e-05
0.00101237 3.1205e-05 9.84091e-05
0.00104 3.20522e-05 0.000103237
0 0 0
4.98861e-05 6.31765e-21 3.07615e-05
9.85829e-05 1.02069e-20 3.56356e-05
0.000151065 2.08514e-20 3.4491e-05
0.000207274 1.30424e-19 3.0672e-05
0.000265953 4.22118e-19 2.65499e-05
0.000326331 7.09489e-19 2.31975e-05
0.000387776 5.73483e-19 2.11238e-05
0.000449716 7.02008e-19 2.05586e-05
0.000511588 7.52928e-19 2.16063e-05
0.000572814 6.96094e-19 2.43027e-05
0.000632807 5.85288e-19 2.86309e-05
0.000690987 6.80324e-19 3.4518e-05
0.000746793 6.14864e-19 4.18256e-05
0.000799713 9.10425e-19 5.03363e-05
0.000849311 9.7737e-19 5.97361e-05
0.000895268 7.99691e-19 6.95891e-05
0.000937497 8.49406e-19 7.93411e-05
0.000976259 1.24361e-18 8.8348e-05
0.00101167 1.27699e-18 9.72827e-05
0.00104 1.5788e-18 0.000101977
0 0 0
4.99724e-05 -6.35633e-06 3.07988e-05
9.86997e-05 -1.03582e-05 3.55444e-05
0.000151243 -1.13951e-05 3.43263e-05
0.000207165 -1.05961e-05 3.03716e-05
0.000265688 -9.34104e-06 2.61833e-05
0.000326067 -8.23197e-06 2.27786e-05
0.000387639 -7.53229e-06 2.06627e-05
0.000449786 -7.33981e-06 2.0066e-05
0.000511906 -7.68756e-06 2.10959e-05
0.000573397 -8.58059e-06 2.37911e-05
0.000633654 -1.00064e-05 2.81367e-05
0.000692082 -1.19342e-05 3.4063e-05
0.000748111 -1.43112e-05 4.14361e-05
0.000801217 -1.70569e-05 5.00455e-05
0.00085095 -2.00592e-05 5.95897e-05
0.000896971 -2.317e-05 6.9657e-05
0.000939114 -2.62274e-05 7.97268e-05
0.000977536 -2.90395e-05 8.91316e-05
0.00101237 -3.1205e-05 9.84091e-05
0.00104 -3.20522e-05 0.000103237
0 0 0
5.01059e-05 -1.489e-05 3.07336e-05
0.000100061 -2.24527e-05 3.54654e-05
0.000151465 -2.26848e-05 3.38054e-05
0.00020646 -2.05199e-05 2.96906e-05
0.0002646 -1.77998e-05 2.53778e-05
0.000325103 -1.55138e-05 2.18712e-05
0.000387142 -1.40744e-05 1.96651e-05
0.000449959 -1.36579e-05 1.89994e-05
0.000512851 -1.4335e-05 1.99899e-05
0.00057515 -1.61254e-05 2.26806e-05
0.000636206 -1.90132e-05 2.70612e-05
0.000695386 -2.29467e-05 3.30683e-05
0.000752085 -2.78317e-05 4.05777e-05
0.000805745 -3.35228e-05 4.93935e-05
0.000855879 -3.98163e-05 5.92382e-05
0.000902094 -4.64504e-05 6.97491e-05
0.000944088 -5.30885e-05 8.04912e-05
0.0009816 -5.94406e-05 9.08266e-05
0.00101459 -6.48361e-05 0.000100957
0.00104 -6.71467e-05 0.00010611
0 0 0
5.73141e-05 -3.12317e-05 3.12317e-05
0.000102162 -3.48684e-05 3.48684e-05
0.000150179 -3.34452e-05 3.34452e-05
0.000203788 -2.93311e-05 2.93311e-05
0.000261816 -2.50159e-05 2.50159e-05
0.000322955 -2.14791e-05 2.14791e-05
0.000386045 -1.92381e-05 1.92381e-05
0.000450133 -1.85423e-05 1.85423e-05
0.000514399 -1.95138e-05 1.95138e-05
0.000578101 -2.21989e-05 2.21989e-05
0.000640529 -2.65894e-05 2.65894e-05
0.000700998 -3.26243e-05 3.26243e-05
0.000758847 -4.01841e-05 4.01841e-05
0.000813456 -4.90798e-05 4.90798e-05
0.000864274 -5.90446e-05 5.90446e-05
0.00091085 -6.97338e-05 6.97338e-05
0.00095279 -8.07706e-05 8.07706e-05
0.000989589 -9.15717e-05 9.15717e-05
0.00101994 -0.000102127 0.000102127
0.00104 -0.000107424 0.000107424
0 0 0
5.01059e-05 3.07336e-05 1.489e-05
0.000100061 3.54654e-05 2.24527e-05
0.000151465 3.38054e-05 2.26848e-05
0.00020646 2.96906e-05 2.05199e-05
0.0002646 2.53778e-05 1.77998e-05
0.000325103 2.18712e-05 1.55138e-05
0.000387142 1.96651e-05 1.40744e-05
0.000449959 1.89994e-05 1.36579e-05
0.000512851 1.99899e-05 1.4335e-05
0.00057515 2.26806e-05 1.61254e-05
0.000636206 2.70612e-05 1.90132e-05
0.000695386 3.30683e-05 2.29467e-05
0.000752085 4.05777e-05 2.78317e-05
0.000805745 4.93935e-05 3.35228e-05
0.000855879 5.92382e-05 3.98163e-05
0.000902094 6.97491e-05 4.64504e-05
0.000944088 8.04912e-05 5.30885e-05
0.0009816 9.08266e-05 5.94406e-05
0.00101459 0.000100957 6.48361e-05
0.00104 0.00010611 6.71467e-05
0 0 0
4.28682e-05 1.50937e-05 1.50937e-05
9.76806e-05 2.26322e-05 2.26322e-05
0.000152639 2.27284e-05 2.27284e-05
0.000209048 2.042e-05 2.042e-05
0.000267319 1.76215e-05 1.76215e-05
0.000327197 1.52846e-05 1.52846e-05
0.000388197 1.38123e-05 1.38123e-05
0.000449757 1.33755e-05 1.33755e-05
0.000511293 1.40432e-05 1.40432e-05
0.000572209 1.5835e-05 1.5835e-05
0.000631914 1.87358e-05 1.87358e-05
0.00068983 2.26949e-05 2.26949e-05
0.00074541 2.762e-05 2.762e-05
0.00079816 3.33685e-05 3.33685e-05
0.000847663 3.97408e-05 3.97408e-05
0.0008936 4.6483e-05 4.6483e-05
0.000935774 5.32786e-05 5.32786e-05
0.00097407 5.98666e-05 5.98666e-05
0.00100956 6.55151e-05 6.55151e-05
0.00104 6.79373e-05 6.79373e-05
0 0 0
4.28307e-05 6.47452e-06 1.52928e-05
9.61667e-05 1.04517e-05 2.29984e-05
0.000152179 1.13407e-05 2.30887e-05
0.000209607 1.0406e-05 2.07429e-05
0.000268309 9.05369e-06 1.79151e-05
0.000328091 7.87999e-06 1.55765e-05
0.000388643 7.1346e-06 1.41174e-05
0.000449553 6.91179e-06 1.3697e-05
0.000510337 7.24417e-06 1.4376e-05
0.000570467 8.13752e-06 1.61699e-05
0.000629399 9.58064e-06 1.90607e-05
0.000686594 1.1545e-05 2.29958e-05
0.00074154 1.3981e-05 2.78791e-05
0.000793783 1.68134e-05 3.35627e-05
0.000842949 1.9939e-05 3.9837e-05
0.000888791 2.32283e-05 4.64304e-05
0.000931236 2.65491e-05 5.30086e-05
0.000970503 2.97067e-05 5.93464e-05
0.00100769 3.21873e-05 6.4818e-05
0.00104 3.31614e-05 6.71867e-05
0 0 0
4.27678e-05 3.48725e-20 1.53834e-05
9.5981e-05 4.58959e-20 2.31265e-05
0.000151915 -3.82385e-20 2.32487e-05
0.000209642 1.04853e-19 2.09116e-05
0.000268527 3.83245e-20 1.80878e-05
0.000328322 2.95191e-19 1.57559e-05
0.000388757 3.33978e-19 1.43078e-05
0.000449469 4.06578e-19 1.3898e-05
0.000510014 3.10547e-19 1.45838e-05
0.00056989 4.20402e-19 1.63782e-05
0.00062857 3.0768e-19 1.9262e-05
0.00068553 5.30193e-19 2.31809e-05
0.00074027 5.25797e-19 2.80371e-05
0.000792349 7.63073e-19 3.36791e-05
0.000841409 9.08255e-19 3.98915e-05
0.000887232 9.00473e-19 4.63925e-05
0.000929819 1.02163e-18 5.28413e-05
0.000969442 1.12759e-18 5.90318e-05
0.00100713 9.79688e-19 6.43861e-05
0.00104 9.94178e-19 6.67109e-05
0 0 0
4.28307e-05 -6.47452e-06 1.52928e-05
9.61667e-05 -1.04517e-05 2.29984e-05
0.000152179 -1.13407e-05 2.30887e-05
0.000209607 -1.0406e-05 2.07429e-05
0.000268309 -9.05369e-06 1.79151e-05
0.000328091 -7.87999e-06 1.55765e-05
0.000388643 -7.1346e-06 1.41174e-05
0.000449553 -6.91179e-06 1.3697e-05
0.000510337 -7.24417e-06 1.4376e-05
0.000570467 -8.13752e-06 1.61699e-05
0.000629399 -9.58064e-06 1.90607e-05
0.000686594 -1.1545e-05 2.29958e-05
0.00074154 -1.3981e-05 2.78791e-05
0.000793783 -1.68134e-05 3.35627e-05
0.000842949 -1.9939e-05 3.9837e-05
0.000888791 -2.32283e-05 4.64304e-05
0.000931236 -2.65491e-05 5.30086e-05
0.000970503 -2.97067e-05 5.93464e-05
0.00100769 -3.21873e-05 6.4818e-05
0.00104 -3.31614e-05 6.71867e-05
0 0 0
4.28682e-05 -1.50937e-05 1.50937e-05
9.76806e-05 -2.26322e-05 2.26322e-05
0.000152639 -2.27284e-05 2.27284e-05
0.000209048 -2.042e-05 2.042e-05
0.000267319 -1.76215e-05 1.76215e-05
0.000327197 -1.52846e-05 1.52846e-05
0.000388197 -1.38123e-05 1.38123e-05
0.000449757 -1.33755e-05 1.33755e-05
0.000511293 -1.40432e-05 1.40432e-05
0.000572209 -1.5835e-05 1.5835e-05
0.000631914 -1.87358e-05 1.87358e-05
0.00068983 -2.26949e-05 2.26949e-05
0.00074541 -2.762e-05 2.762e-05
0.00079816 -3.33685e-05 3.33685e-05
0.000847663 -3.97408e-05 3.97408e-05
0.0008936 -4.6483e-05 4.6483e-05
0.000935774 -5.32786e-05 5.32786e-05
0.00097407 -5.98666e-05 5.98666e-05
0.00100956 -6.55151e-05 6.55151e-05
0.00104 -6.79373e-05 6.79373e-05
0 0 0
5.01059e-05 -3.07336e-05 1.489e-05
0.000100061 -3.54654e-05 2.24527e-05
0.000151465 -3.38054e-05 2.26848e-05
0.00020646 -2.96906e-05 2.05199e-05
0.0002646 -2.53778e-05 1.77998e-05
0.000325103 -2.18712e-05 1.55138e-05
0.000387142 -1.96651e-05 1.40744e-05
0.000449959 -1.89994e-05 1.36579e-05
0.000512851 -1.99899e-05 1.4335e-05
0.00057515 -2.26806e-05 1.61254e-05
0.000636206 -2.70612e-05 1.90132e-05
0.000695386 -3.30683e-05 2.29467e-05
0.000752085 -4.05777e-05 2.78317e-05
0.000805745 -4.93935e-05 3.35228e-05
0.000855879 -5.92382e-05 3.98163e-05
0.000902094 -6.97491e-05 4.64504e-05
0.000944088 -8.04912e-05 5.30885e-05
0.0009816 -9.08266e-05 5.94406e-05
0.00101459 -0.000100957 6.48361e-05
0.00104 -0.00010611 6.71467e-05
0 0 0
4.99724e-05 3.07988e-05 6.35633e-06
9.86997e-05 3.55444e-05 1.03582e-05
0.000151243 3.43263e-05 1.13951e-05
0.000207165 3.03716e-05 1.05961e-05
0.000265688 2.61833e-05 9.34104e-06
0.000326067 2.27786e-05 8.23197e-06
0.000387639 2.06627e-05 7.53229e-06
0.000449786 2.0066e-05 7.33981e-06
0.000511906 2.10959e-05 7.68756e-06
0.000573397 2.37911e-05 8.58059e-06
0.000633654 2.81367e-05 1.00064e-05
0.000692082 3.4063e-05 1.19342e-05
0.000748111 4.14361e-05 1.43112e-05
0.000801217 5.00455e-05 1.70569e-05
0.00085095 5.95897e-05 2.00592e-05
0.000896971 6.9657e-05 2.317e-05
0.000939114 7.97268e-05 2.62274e-05
0.000977536 8.91316e-05 2.90395e-05
0.00101237 9.84091e-05 3.1205e-05
0.00104 0.000103237 3.20522e-05
0 0 0
4.28307e-05 1.52928e-05 6.47452e-06
9.61667e-05 2.29984e-05 1.04517e-05
0.000152179 2.30887e-05 1.13407e-05
0.000209607 2.07429e-05 1.0406e-05
0.000268309 1.79151e-05 9.05369e-06
0.000328091 1.55765e-05 7.87999e-06
0.000388643 1.41174e-05 7.1346e-06
0.000449553 1.3697e-05 6.91179e-06
0.000510337 1.4376e-05 7.24417e-06
0.000570467 1.61699e-05 8.13752e-06
0.000629399 1.90607e-05 9.58064e-06
0.000686594 2.29958e-05 1.1545e-05
0.00074154 2.78791e-05 1.3981e-05
0.000793783 3.35627e-05 1.68134e-05
0.000842949 3.9837e-05 1.9939e-05
0.000888791 4.64304e-05 2.32283e-05
0.000931236 5.30086e-05 2.65491e-05
0.000970503 5.93464e-05 2.97067e-05
0.00100769 6.4818e-05 3.21873e-05
0.00104 6.71867e-05 3.31614e-05
0 0 0
4.27951e-05 6.61978e-06 6.61978e-06
9.45987e-05 1.0628e-05 1.0628e-05
0.000151624 1.15029e-05 1.15029e-05
0.000210062 1.05212e-05 1.05212e-05
0.000269234 9.13196e-06 9.13196e-06
0.000328947 7.93811e-06 7.93811e-06
0.000389067 7.1858e-06 7.1858e-06
0.000449337 6.96231e-06 6.96231e-06
0.000509378 7.29581e-06 7.29581e-06
0.000568731 8.18975e-06 8.18975e-06
0.000626899 9.63184e-06 9.63184e-06
0.000683383 1.15929e-05 1.15929e-05
0.00073771 1.40224e-05 1.40224e-05
0.000789463 1.68439e-05 1.68439e-05
0.000838317 1.99516e-05 1.99516e-05
0.000884094 2.32132e-05 2.32132e-05
0.000926839 2.64995e-05 2.64995e-05
0.000967089 2.96293e-05 2.96293e-05
0.00100593 3.21008e-05 3.21008e-05
0.00104 3.30759e-05 3.30759e-05
0 0 0
4.27391e-05 -7.08869e-20 6.6737e-06
9.44024e-05 -2.00629e-20 1.07135e-05
0.000151319 6.326e-20 1.15851e-05
0.000210063 1.06136e-19 1.05927e-05
0.000269426 8.73506e-20 9.19348e-06
0.000329163 1.61075e-19 7.99555e-06
0.000389172 1.50482e-19 7.24341e-06
0.000449248 1.18816e-19 7.02194e-06
0.000509053 2.14412e-19 7.35715e-06
0.000568155 2.20289e-19 8.25128e-06
0.000626075 4.06357e-19 9.69136e-06
0.000682328 3.30475e-19 1.16477e-05
0.000736453 4.12715e-19 1.4069e-05
0.000788048 5.63008e-19 1.68776e-05
0.000836805 7.16359e-19 1.99657e-05
0.000882572 8.99831e-19 2.31983e-05
0.000925468 8.75834e-19 2.64465e-05
0.00096608 8.89469e-19 2.95378e-05
0.00100541 1.196e-18 3.19829e-05
0.00104 1.00332e-18 3.29492e-05
0 0 0
4.27951e-05 -6.61978e-06 6.61978e-06
9.45987e-05 -1.0628e-05 1.0628e-05
0.000151624 -1.15029e-05 1.15029e-05
0.000210062 -1.05212e-05 1.05212e-05
0.000269234 -9.13196e-06 9.13196e-06
0.000328947 -7.93811e-06 7.93811e-06
0.000389067 -7.1858e-06 7.1858e-06
0.000449337 -6.96231e-06 6.96231e-06
0.000509378 -7.29581e-06 7.29581e-06
0.000568731 -8.18975e-06 8.18975e-06
0.000626899 -9.63184e-06 9.63184e-06
0.000683383 -1.15929e-05 1.15929e-05
0.00073771 -1.40224e-05 1.40224e-05
0.000789463 -1.68439e-05 1.68439e-05
0.000838317 -1.99516e-05 1.99516e-05
0.000884094 -2.32132e-05 2.32132e-05
0.000926839 -2.64995e-05 2.64995e-05
0.000967089 -2.96293e-05 2.96293e-05
0.00100593 -3.21008e-05 3.21008e-05
0.00104 -3.30759e-05 3.30759e-05
0 0 0
4.28307e-05 -1.52928e-05 6.47452e-06
9.61667e-05 -2.29984e-05 1.04517e-05
0.000152179 -2.30887e-05 1.13407e-05
0.000209607 -2.07429e-05 1.0406e-05
0.000268309 -1.79151e-05 9.05369e-06
0.000328091 -1.55765e-05 7.87999e-06
0.000388643 -1.41174e-05 7.1346e-06
0.000449553 -1.3697e-05 6.91179e-06
0.000510337 -1.4376e-05 7.24417e-06
0.000570467 -1.61699e-05 8.13752e-06
0.000629399 -1.90607e-05 9.58064e-06
0.000686594 -2.29958e-05 1.1545e-05
0.00074154 -2.78791e-05 1.3981e-05
0.000793783 -3.35627e-05 1.68134e-05
0.000842949 -3.9837e-05 1.9939e-05
0.000888791 -4.64304e-05 2.32283e-05
0.000931236 -5.30086e-05 2.65491e-05
0.000970503 -5.93464e-05 2.97067e-05
0.00100769 -6.4818e-05 3.21873e-05
0.00104 -6.71867e-05 3.31614e-05
0 0 0
4.99724e-05 -3.07988e-05 6.35633e-06
9.86997e-05 -3.55444e-05 1.03582e-05
0.000151243 -3.43263e-05 1.13951e-05
0.000207165 -3.03716e-05 1.05961e-05
0.000265688 -2.61833e-05 9.34104e-06
0.000326067 -2.27786e-05 8.23197e-06
0.000387639 -2.06627e-05 7.53229e-06
0.000449786 -2.0066e-05 7.33981e-06
0.000511906 -2.10959e-05 7.68756e-06
0.000573397 -2.37911e-05 8.58059e-06
0.000633654 -2.81367e-05 1.00064e-05
0.000692082 -3.4063e-05 1.19342e-05
0.000748111 -4.14361e-05 1.43112e-05
0.000801217 -5.00455e-05 1.70569e-05
0.00085095 -5.95897e-05 2.00592e-05
0.000896971 -6.9657e-05 2.317e-05
0.000939114 -7.97268e-05 2.62274e-05
0.000977536 -8.91316e-05 2.90395e-05
0.00101237 -9.84091e-05 3.1205e-05
0.00104 -0.000103237 3.20522e-05
0 0 0
4.98861e-05 3.07615e-05 -7.94792e-20
9.85829e-05 3.56356e-05 -1.91748e-19
0.000151065 3.4491e-05 -3.48044e-19
0.000207274 3.0672e-05 -5.18111e-19
0.000265953 2.65499e-05 -6.94139e-19
0.000326331 2.31975e-05 -9.58146e-19
0.000387776 2.11238e-05 -1.0608e-18
0.000449716 2.05586e-05 -1.25092e-18
0.000511588 2.16063e-05 -1.61088e-18
0.000572814 2.43027e-05 -1.86171e-18
0.000632807 2.86309e-05 -2.03403e-18
0.000690987 3.4518e-05 -2.12031e-18
0.000746793 4.18256e-05 -2.62895e-18
0.000799713 5.03363e-05 -3.0275e-18
0.000849311 5.97361e-05 -3.55479e-18
0.000895268 6.95891e-05 -3.68591e-18
0.000937497 7.93411e-05 -3.80562e-18
0.000976259 8.8348e-05 -3.9215e-18
0.00101167 9.72827e-05 -4.11572e-18
0.00104 0.000101977 -3.99201e-18
0 0 0
4.27678e-05 1.53834e-05 -1.53486e-19
9.5981e-05 2.31265e-05 -1.98857e-19
0.000151915 2.32487e-05 -1.63472e-19
0.000209642 2.09116e-05 -2.56813e-19
0.000268527 1.80878e-05 -5.60242e-19
0.000328322 1.57559e-05 -6.22948e-19
0.000388757 1.43078e-05 -8.701e-19
0.000449469 1.3898e-05 -1.00528e-18
0.000510014 1.45838e-05 -1.37127e-18
0.00056989 1.63782e-05 -1.83489e-18
0.00062857 1.9262e-05 -1.789e-18
0.00068553 2.31809e-05 -2.36085e-18
0.00074027 2.80371e-05 -2.59069e-18
0.000792349 3.36791e-05 -3.04717e-18
0.000841409 3.98915e-05 -3.39619e-18
0.000887232 4.63925e-05 -3.5128e-18
0.000929819 5.28413e-05 -3.7267e-18
0.000969442 5.90318e-05 -3.95412e-18
0.00100713 6.43861e-05 -4.21545e-18
0.00104 6.67109e-05 -4.05012e-18
0 0 0
4.27391e-05 6.6737e-06 1.05696e-20
9.44024e-05 1.07135e-05 -6.71333e-20
0.000151319 1.15851e-05 -1.2697e-19
0.000210063 1.05927e-05 -2.10664e-19
0.000269426 9.19348e-06 -3.12169e-19
0.000329163 7.99555e-06 -5.2265e-19
0.000389172 7.24341e-06 -6.31309e-19
0.000449248 7.02194e-06 -1.02724e-18
0.000509053 7.35715e-06 -1.27591e-18
0.000568155 8.25128e-06 -1.58444e-18
0.000626075 9.69136e-06 -1.91285e-18
0.000682328 1.16477e-05 -2.16469e-18
0.000736453 1.4069e-05 -2.45951e-18
0.000788048 1.68776e-05 -2.94977e-18
0.000836805 1.99657e-05 -3.08824e-18
0.000882572 2.31983e-05 -3.34826e-18
0.000925468 2.64465e-05 -3.66962e-18
0.00096608 2.95378e-05 -3.87288e-18
0.00100541 3.19829e-05 -3.91569e-18
0.00104 3.29492e-05 -4.11225e-18
0 0 0
4.26805e-05 -1.70344e-20 -2.34318e-20
9.42004e-05 -2.50553e-19 -1.06308e-19
0.000151006 -5.22112e-20 6.14598e-20
0.000210052 -3.593e-20 -5.98217e-20
0.000269611 3.65987e-20 -1.87694e-19
0.000329375 2.60965e-19 -3.21472e-19
0.000389275 2.73972e-19 -5.97219e-19
0.000449159 1.40735e-19 -6.92034e-19
0.000508729 1.43873e-22 -1.18982e-18
0.00056758 1.68744e-19 -1.42595e-18
0.000625252 1.19695e-19 -1.59319e-18
0.000681274 9.8612e-20 -1.97214e-18
0.000735199 2.56703e-19 -2.30927e-18
0.000786637 4.65337e-19 -2.70903e-18
0.000835299 7.59771e-19 -2.94886e-18
0.000881058 7.57579e-19 -3.09976e-18
0.000924106 6.71123e-19 -3.43705e-18
0.00096508 7.51812e-19 -3.6442e-18
0.0010049 7.34989e-19 -3.82111e-18
0.00104 1.06282e-18 -3.34502e-18
0 0 0
4.27391e-05 -6.6737e-06 -2.02868e-20
9.44024e-05 -1.07135e-05 -1.50486e-21
0.000151319 -1.15851e-05 -1.61112e-20
0.000210063 -1.05927e-05 -1.7212e-20
0.000269426 -9.19348e-06 -1.07952e-19
0.000329163 -7.99555e-06 -3.03608e-19
0.000389172 -7.24341e-06 -4.24988e-19
0.000449248 -7.02194e-06 -7.24381e-19
0.000509053 -7.35715e-06 -8.96525e-19
0.000568155 -8.25128e-06 -1.25956e-18
0.000626075 -9.69136e-06 -1.52778e-18
0.000682328 -1.16477e-05 -1.8056e-18
0.000736453 -1.4069e-05 -2.09358e-18
0.000788048 -1.68776e-05 -2.40443e-18
0.000836805 -1.99657e-05 -2.74854e-18
0.000882572 -2.31983e-05 -2.98587e-18
0.000925468 -2.64465e-05 -3.3251e-18
0.00096608 -2.95378e-05 -3.4859e-18
0.00100541 -3.19829e-05 -3.56194e-18
0.00104 -3.29492e-05 -3.62947e-18
0 0 0
4.27678e-05 -1.53834e-05 3.64441e-20
9.5981e-05 -2.31265e-05 5.11782e-20
0.000151915 -2.32487e-05 -1.71765e-19
0.000209642 -2.09116e-05 -1.33352e-19
0.000268527 -1.80878e-05 -1.47861e-19
0.000328322 -1.57559e-05 -1.72579e-19
0.000388757 -1.43078e-05 -3.19637e-19
0.000449469 -1.3898e-05 -5.24287e-19
0.000510014 -1.45838e-05 -7.55304e-19
0.00056989 -1.63782e-05 -1.08593e-18
0.00062857 -1.9262e-05 -1.58222e-18
0.00068553 -2.31809e-05 -1.59994e-18
0.00074027 -2.80371e-05 -1.81592e-18
0.000792349 -3.36791e-05 -2.19435e-18
0.000841409 -3.98915e-05 -2.56833e-18
0.000887232 -4.63925e-05 -2.84012e-18
0.000929819 -5.28413e-05 -3.04246e-18
0.000969442 -5.90318e-05 -3.25719e-18
0.00100713 -6.43861e-05 -3.37965e-18
0.00104 -6.67109e-05 -3.40944e-18
0 0 0
4.98861e-05 -3.07615e-05 7.5456e-20
9.85829e-05 -3.56356e-05 7.65507e-20
0.000151065 -3.4491e-05 1.12432e-19
0.000207274 -3.0672e-05 -1.72715e-19
0.000265953 -2.65499e-05 -1.14204e-19
0.000326331 -2.31975e-05 -6.31677e-20
0.000387776 -2.11238e-05 -2.37782e-19