<?xml version="1.0"?>
<VTKFile type="UnstructuredGrid" version="0.1" byte_order="LittleEndian">
<UnstructuredGrid>
<Piece NumberOfPoints="8" NumberOfCells="1">
<Points>
<DataArray type="Float32" NumberOfComponents="3" format="ascii">
0 0 0
0.1 0 0
0 0.03 0
0.1 0.03 0
0 0 0.03
0.1 0 0.03
0 0.03 0.03
0.1 0.03 0.03
</DataArray>
</Points>
<Cells>
<DataArray type="Int32" Name="connectivity" format="ascii">
0 1 3 2 4 5 7 6 
</DataArray>
<DataArray type="Int32" Name="offsets" format="ascii">
8 
</DataArray>
<DataArray type="UInt8" Name="types" format="ascii">
12 
</DataArray>
</Cells>
<PointData Vectors="Displacement">
<DataArray type="Float32" Name="Displacement" NumberOfComponents="3" format="ascii">
0.0468 0 0
0.0468 -4.64901e-18 4.48554e-18
0.0468 0 0
0.0468 -5.81967e-18 1.83598e-18
0.0468 0 0
0.0468 -2.49468e-18 2.31145e-18
0.0468 0 0
0.0468 -4.03084e-18 1.08926e-18
</DataArray>
</PointData>
</Piece>
</UnstructuredGrid>
</VTKFile>
