<?xml version="1.0"?>
<VTKFile type="UnstructuredGrid" version="0.1" byte_order="LittleEndian">
<UnstructuredGrid>
<Piece NumberOfPoints="8" NumberOfCells="1">
<Points>
<DataArray type="Float32" NumberOfComponents="3" format="ascii">
0 0 0
0.1 0 0
0 0.03 0
0.1 0.03 0
0 0 0.03
0.1 0 0.03
0 0.03 0.03
0.1 0.03 0.03
</DataArray>
</Points>
<Cells>
<DataArray type="Int32" Name="connectivity" format="ascii">
0 1 3 2 4 5 7 6 
</DataArray>
<DataArray type="Int32" Name="offsets" format="ascii">
8 
</DataArray>
<DataArray type="UInt8" Name="types" format="ascii">
12 
</DataArray>
</Cells>
<PointData Vectors="Displacement">
<DataArray type="Float32" Name="Displacement" NumberOfComponents="3" format="ascii">
0 0 0
0 0 0
0 0 0
0 0 0
0.03085 -0.00215578 0.00616176
0.03085 -0.00230574 -0.00719605
0.03085 -0.00639944 0.0115289
0.03085 0.0032614 -0.00595776
</DataArray>
</PointData>
</Piece>
</UnstructuredGrid>
</VTKFile>
