<?xml version="1.0"?>
<VTKFile type="UnstructuredGrid" version="0.1" byte_order="LittleEndian">
<UnstructuredGrid>
<Piece NumberOfPoints="1029" NumberOfCells="720">
<Points>
<DataArray type="Float32" NumberOfComponents="3" format="ascii">
0 0 0
0.005 0 0
0.01 0 0
0.015 0 0
0.02 0 0
0.025 0 0
0.03 0 0
0.035 0 0
0.04 0 0
0.045 0 0
0.05 0 0
0.055 0 0
0.06 0 0
0.065 0 0
0.07 0 0
0.075 0 0
0.08 0 0
0.085 0 0
0.09 0 0
0.095 0 0
0.1 0 0
0 0.005 0
0.005 0.005 0
0.01 0.005 0
0.015 0.005 0
0.02 0.005 0
0.025 0.005 0
0.03 0.005 0
0.035 0.005 0
0.04 0.005 0
0.045 0.005 0
0.05 0.005 0
0.055 0.005 0
0.06 0.005 0
0.065 0.005 0
0.07 0.005 0
0.075 0.005 0
0.08 0.005 0
0.085 0.005 0
0.09 0.005 0
0.095 0.005 0
0.1 0.005 0
0 0.01 0
0.005 0.01 0
0.01 0.01 0
0.015 0.01 0
0.02 0.01 0
0.025 0.01 0
0.03 0.01 0
0.035 0.01 0
0.04 0.01 0
0.045 0.01 0
0.05 0.01 0
0.055 0.01 0
0.06 0.01 0
0.065 0.01 0
0.07 0.01 0
0.075 0.01 0
0.08 0.01 0
0.085 0.01 0
0.09 0.01 0
0.095 0.01 0
0.1 0.01 0
0 0.015 0
0.005 0.015 0
0.01 0.015 0
0.015 0.015 0
0.02 0.015 0
0.025 0.015 0
0.03 0.015 0
0.035 0.015 0
0.04 0.015 0
0.045 0.015 0
0.05 0.015 0
0.055 0.015 0
0.06 0.015 0
0.065 0.015 0
0.07 0.015 0
0.075 0.015 0
0.08 0.015 0
0.085 0.015 0
0.09 0.015 0
0.095 0.015 0
0.1 0.015 0
0 0.02 0
0.005 0.02 0
0.01 0.02 0
0.015 0.02 0
0.02 0.02 0
0.025 0.02 0
0.03 0.02 0
0.035 0.02 0
0.04 0.02 0
0.045 0.02 0
0.05 0.02 0
0.055 0.02 0
0.06 0.02 0
0.065 0.02 0
0.07 0.02 0
0.075 0.02 0
0.08 0.02 0
0.085 0.02 0
0.09 0.02 0
0.095 0.02 0
0.1 0.02 0
0 0.025 0
0.005 0.025 0
0.01 0.025 0
0.015 0.025 0
0.02 0.025 0
0.025 0.025 0
0.03 0.025 0
0.035 0.025 0
0.04 0.025 0
0.045 0.025 0
0.05 0.025 0
0.055 0.025 0
0.06 0.025 0
0.065 0.025 0
0.07 0.025 0
0.075 0.025 0
0.08 0.025 0
0.085 0.025 0
0.09 0.025 0
0.095 0.025 0
0.1 0.025 0
0 0.03 0
0.005 0.03 0
0.01 0.03 0
0.015 0.03 0
0.02 0.03 0
0.025 0.03 0
0.03 0.03 0
0.035 0.03 0
0.04 0.03 0
0.045 0.03 0
0.05 0.03 0
0.055 0.03 0
0.06 0.03 0
0.065 0.03 0
0.07 0.03 0
0.075 0.03 0
0.08 0.03 0
0.085 0.03 0
0.09 0.03 0
0.095 0.03 0
0.1 0.03 0
0 0 0.005
0.005 0 0.005
0.01 0 0.005
0.015 0 0.005
0.02 0 0.005
0.025 0 0.005
0.03 0 0.005
0.035 0 0.005
0.04 0 0.005
0.045 0 0.005
0.05 0 0.005
0.055 0 0.005
0.06 0 0.005
0.065 0 0.005
0.07 0 0.005
0.075 0 0.005
0.08 0 0.005
0.085 0 0.005
0.09 0 0.005
0.095 0 0.005
0.1 0 0.005
0 0.005 0.005
0.005 0.005 0.005
0.01 0.005 0.005
0.015 0.005 0.005
0.02 0.005 0.005
0.025 0.005 0.005
0.03 0.005 0.005
0.035 0.005 0.005
0.04 0.005 0.005
0.045 0.005 0.005
0.05 0.005 0.005
0.055 0.005 0.005
0.06 0.005 0.005
0.065 0.005 0.005
0.07 0.005 0.005
0.075 0.005 0.005
0.08 0.005 0.005
0.085 0.005 0.005
0.09 0.005 0.005
0.095 0.005 0.005
0.1 0.005 0.005
0 0.01 0.005
0.005 0.01 0.005
0.01 0.01 0.005
0.015 0.01 0.005
0.02 0.01 0.005
0.025 0.01 0.005
0.03 0.01 0.005
0.035 0.01 0.005
0.04 0.01 0.005
0.045 0.01 0.005
0.05 0.01 0.005
0.055 0.01 0.005
0.06 0.01 0.005
0.065 0.01 0.005
0.07 0.01 0.005
0.075 0.01 0.005
0.08 0.01 0.005
0.085 0.01 0.005
0.09 0.01 0.005
0.095 0.01 0.005
0.1 0.01 0.005
0 0.015 0.005
0.005 0.015 0.005
0.01 0.015 0.005
0.015 0.015 0.005
0.02 0.015 0.005
0.025 0.015 0.005
0.03 0.015 0.005
0.035 0.015 0.005
0.04 0.015 0.005
0.045 0.015 0.005
0.05 0.015 0.005
0.055 0.015 0.005
0.06 0.015 0.005
0.065 0.015 0.005
0.07 0.015 0.005
0.075 0.015 0.005
0.08 0.015 0.005
0.085 0.015 0.005
0.09 0.015 0.005
0.095 0.015 0.005
0.1 0.015 0.005
0 0.02 0.005
0.005 0.02 0.005
0.01 0.02 0.005
0.015 0.02 0.005
0.02 0.02 0.005
0.025 0.02 0.005
0.03 0.02 0.005
0.035 0.02 0.005
0.04 0.02 0.005
0.045 0.02 0.005
0.05 0.02 0.005
0.055 0.02 0.005
0.06 0.02 0.005
0.065 0.02 0.005
0.07 0.02 0.005
0.075 0.02 0.005
0.08 0.02 0.005
0.085 0.02 0.005
0.09 0.02 0.005
0.095 0.02 0.005
0.1 0.02 0.005
0 0.025 0.005
0.005 0.025 0.005
0.01 0.025 0.005
0.015 0.025 0.005
0.02 0.025 0.005
0.025 0.025 0.005
0.03 0.025 0.005
0.035 0.025 0.005
0.04 0.025 0.005
0.045 0.025 0.005
0.05 0.025 0.005
0.055 0.025 0.005
0.06 0.025 0.005
0.065 0.025 0.005
0.07 0.025 0.005
0.075 0.025 0.005
0.08 0.025 0.005
0.085 0.025 0.005
0.09 0.025 0.005
0.095 0.025 0.005
0.1 0.025 0.005
0 0.03 0.005
0.005 0.03 0.005
0.01 0.03 0.005
0.015 0.03 0.005
0.02 0.03 0.005
0.025 0.03 0.005
0.03 0.03 0.005
0.035 0.03 0.005
0.04 0.03 0.005
0.045 0.03 0.005
0.05 0.03 0.005
0.055 0.03 0.005
0.06 0.03 0.005
0.065 0.03 0.005
0.07 0.03 0.005
0.075 0.03 0.005
0.08 0.03 0.005
0.085 0.03 0.005
0.09 0.03 0.005
0.095 0.03 0.005
0.1 0.03 0.005
0 0 0.01
0.005 0 0.01
0.01 0 0.01
0.015 0 0.01
0.02 0 0.01
0.025 0 0.01
0.03 0 0.01
0.035 0 0.01
0.04 0 0.01
0.045 0 0.01
0.05 0 0.01
0.055 0 0.01
0.06 0 0.01
0.065 0 0.01
0.07 0 0.01
0.075 0 0.01
0.08 0 0.01
0.085 0 0.01
0.09 0 0.01
0.095 0 0.01
0.1 0 0.01
0 0.005 0.01
0.005 0.005 0.01
0.01 0.005 0.01
0.015 0.005 0.01
0.02 0.005 0.01
0.025 0.005 0.01
0.03 0.005 0.01
0.035 0.005 0.01
0.04 0.005 0.01
0.045 0.005 0.01
0.05 0.005 0.01
0.055 0.005 0.01
0.06 0.005 0.01
0.065 0.005 0.01
0.07 0.005 0.01
0.075 0.005 0.01
0.08 0.005 0.01
0.085 0.005 0.01
0.09 0.005 0.01
0.095 0.005 0.01
0.1 0.005 0.01
0 0.01 0.01
0.005 0.01 0.01
0.01 0.01 0.01
0.015 0.01 0.01
0.02 0.01 0.01
0.025 0.01 0.01
0.03 0.01 0.01
0.035 0.01 0.01
0.04 0.01 0.01
0.045 0.01 0.01
0.05 0.01 0.01
0.055 0.01 0.01
0.06 0.01 0.01
0.065 0.01 0.01
0.07 0.01 0.01
0.075 0.01 0.01
0.08 0.01 0.01
0.085 0.01 0.01
0.09 0.01 0.01
0.095 0.01 0.01
0.1 0.01 0.01
0 0.015 0.01
0.005 0.015 0.01
0.01 0.015 0.01
0.015 0.015 0.01
0.02 0.015 0.01
0.025 0.015 0.01
0.03 0.015 0.01
0.035 0.015 0.01
0.04 0.015 0.01
0.045 0.015 0.01
0.05 0.015 0.01
0.055 0.015 0.01
0.06 0.015 0.01
0.065 0.015 0.01
0.07 0.015 0.01
0.075 0.015 0.01
0.08 0.015 0.01
0.085 0.015 0.01
0.09 0.015 0.01
0.095 0.015 0.01
0.1 0.015 0.01
0 0.02 0.01
0.005 0.02 0.01
0.01 0.02 0.01
0.015 0.02 0.01
0.02 0.02 0.01
0.025 0.02 0.01
0.03 0.02 0.01
0.035 0.02 0.01
0.04 0.02 0.01
0.045 0.02 0.01
0.05 0.02 0.01
0.055 0.02 0.01
0.06 0.02 0.01
0.065 0.02 0.01
0.07 0.02 0.01
0.075 0.02 0.01
0.08 0.02 0.01
0.085 0.02 0.01
0.09 0.02 0.01
0.095 0.02 0.01
0.1 0.02 0.01
0 0.025 0.01
0.005 0.025 0.01
0.01 0.025 0.01
0.015 0.025 0.01
0.02 0.025 0.01
0.025 0.025 0.01
0.03 0.025 0.01
0.035 0.025 0.01
0.04 0.025 0.01
0.045 0.025 0.01
0.05 0.025 0.01
0.055 0.025 0.01
0.06 0.025 0.01
0.065 0.025 0.01
0.07 0.025 0.01
0.075 0.025 0.01
0.08 0.025 0.01
0.085 0.025 0.01
0.09 0.025 0.01
0.095 0.025 0.01
0.1 0.025 0.01
0 0.03 0.01
0.005 0.03 0.01
0.01 0.03 0.01
0.015 0.03 0.01
0.02 0.03 0.01
0.025 0.03 0.01
0.03 0.03 0.01
0.035 0.03 0.01
0.04 0.03 0.01
0.045 0.03 0.01
0.05 0.03 0.01
0.055 0.03 0.01
0.06 0.03 0.01
0.065 0.03 0.01
0.07 0.03 0.01
0.075 0.03 0.01
0.08 0.03 0.01
0.085 0.03 0.01
0.09 0.03 0.01
0.095 0.03 0.01
0.1 0.03 0.01
0 0 0.015
0.005 0 0.015
0.01 0 0.015
0.015 0 0.015
0.02 0 0.015
0.025 0 0.015
0.03 0 0.015
0.035 0 0.015
0.04 0 0.015
0.045 0 0.015
0.05 0 0.015
0.055 0 0.015
0.06 0 0.015
0.065 0 0.015
0.07 0 0.015
0.075 0 0.015
0.08 0 0.015
0.085 0 0.015
0.09 0 0.015
0.095 0 0.015
0.1 0 0.015
0 0.005 0.015
0.005 0.005 0.015
0.01 0.005 0.015
0.015 0.005 0.015
0.02 0.005 0.015
0.025 0.005 0.015
0.03 0.005 0.015
0.035 0.005 0.015
0.04 0.005 0.015
0.045 0.005 0.015
0.05 0.005 0.015
0.055 0.005 0.015
0.06 0.005 0.015
0.065 0.005 0.015
0.07 0.005 0.015
0.075 0.005 0.015
0.08 0.005 0.015
0.085 0.005 0.015
0.09 0.005 0.015
0.095 0.005 0.015
0.1 0.005 0.015
0 0.01 0.015
0.005 0.01 0.015
0.01 0.01 0.015
0.015 0.01 0.015
0.02 0.01 0.015
0.025 0.01 0.015
0.03 0.01 0.015
0.035 0.01 0.015
0.04 0.01 0.015
0.045 0.01 0.015
0.05 0.01 0.015
0.055 0.01 0.015
0.06 0.01 0.015
0.065 0.01 0.015
0.07 0.01 0.015
0.075 0.01 0.015
0.08 0.01 0.015
0.085 0.01 0.015
0.09 0.01 0.015
0.095 0.01 0.015
0.1 0.01 0.015
0 0.015 0.015
0.005 0.015 0.015
0.01 0.015 0.015
0.015 0.015 0.015
0.02 0.015 0.015
0.025 0.015 0.015
0.03 0.015 0.015
0.035 0.015 0.015
0.04 0.015 0.015
0.045 0.015 0.015
0.05 0.015 0.015
0.055 0.015 0.015
0.06 0.015 0.015
0.065 0.015 0.015
0.07 0.015 0.015
0.075 0.015 0.015
0.08 0.015 0.015
0.085 0.015 0.015
0.09 0.015 0.015
0.095 0.015 0.015
0.1 0.015 0.015
0 0.02 0.015
0.005 0.02 0.015
0.01 0.02 0.015
0.015 0.02 0.015
0.02 0.02 0.015
0.025 0.02 0.015
0.03 0.02 0.015
0.035 0.02 0.015
0.04 0.02 0.015
0.045 0.02 0.015
0.05 0.02 0.015
0.055 0.02 0.015
0.06 0.02 0.015
0.065 0.02 0.015
0.07 0.02 0.015
0.075 0.02 0.015
0.08 0.02 0.015
0.085 0.02 0.015
0.09 0.02 0.015
0.095 0.02 0.015
0.1 0.02 0.015
0 0.025 0.015
0.005 0.025 0.015
0.01 0.025 0.015
0.015 0.025 0.015
0.02 0.025 0.015
0.025 0.025 0.015
0.03 0.025 0.015
0.035 0.025 0.015
0.04 0.025 0.015
0.045 0.025 0.015
0.05 0.025 0.015
0.055 0.025 0.015
0.06 0.025 0.015
0.065 0.025 0.015
0.07 0.025 0.015
0.075 0.025 0.015
0.08 0.025 0.015
0.085 0.025 0.015
0.09 0.025 0.015
0.095 0.025 0.015
0.1 0.025 0.015
0 0.03 0.015
0.005 0.03 0.015
0.01 0.03 0.015
0.015 0.03 0.015
0.02 0.03 0.015
0.025 0.03 0.015
0.03 0.03 0.015
0.035 0.03 0.015
0.04 0.03 0.015
0.045 0.03 0.015
0.05 0.03 0.015
0.055 0.03 0.015
0.06 0.03 0.015
0.065 0.03 0.015
0.07 0.03 0.015
0.075 0.03 0.015
0.08 0.03 0.015
0.085 0.03 0.015
0.09 0.03 0.015
0.095 0.03 0.015
0.1 0.03 0.015
0 0 0.02
0.005 0 0.02
0.01 0 0.02
0.015 0 0.02
0.02 0 0.02
0.025 0 0.02
0.03 0 0.02
0.035 0 0.02
0.04 0 0.02
0.045 0 0.02
0.05 0 0.02
0.055 0 0.02
0.06 0 0.02
0.065 0 0.02
0.07 0 0.02
0.075 0 0.02
0.08 0 0.02
0.085 0 0.02
0.09 0 0.02
0.095 0 0.02
0.1 0 0.02
0 0.005 0.02
0.005 0.005 0.02
0.01 0.005 0.02
0.015 0.005 0.02
0.02 0.005 0.02
0.025 0.005 0.02
0.03 0.005 0.02
0.035 0.005 0.02
0.04 0.005 0.02
0.045 0.005 0.02
0.05 0.005 0.02
0.055 0.005 0.02
0.06 0.005 0.02
0.065 0.005 0.02
0.07 0.005 0.02
0.075 0.005 0.02
0.08 0.005 0.02
0.085 0.005 0.02
0.09 0.005 0.02
0.095 0.005 0.02
0.1 0.005 0.02
0 0.01 0.02
0.005 0.01 0.02
0.01 0.01 0.02
0.015 0.01 0.02
0.02 0.01 0.02
0.025 0.01 0.02
0.03 0.01 0.02
0.035 0.01 0.02
0.04 0.01 0.02
0.045 0.01 0.02
0.05 0.01 0.02
0.055 0.01 0.02
0.06 0.01 0.02
0.065 0.01 0.02
0.07 0.01 0.02
0.075 0.01 0.02
0.08 0.01 0.02
0.085 0.01 0.02
0.09 0.01 0.02
0.095 0.01 0.02
[...]
<PointData Vectors="Displacement">
<DataArray type="Float32" Name="Displacement" NumberOfComponents="3" format="ascii">
0 0 0
8.3413e-05 4.49975e-05 4.49975e-05
0.000148619 5.18588e-05 5.18588e-05
0.00021685 5.20815e-05 5.20815e-05
0.000291704 4.84589e-05 4.84589e-05
0.000371757 4.42699e-05 4.42699e-05
0.000455389 4.07448e-05 4.07448e-05
0.000541195 3.85073e-05 3.85073e-05
0.000628078 3.78314e-05 3.78314e-05
0.000715147 3.8836e-05 3.8836e-05
0.000801624 4.15569e-05 4.15569e-05
0.000886792 4.59754e-05 4.59754e-05
0.000969964 5.20227e-05 5.20227e-05
0.00105048 5.95742e-05 5.95742e-05
0.00112774 6.84392e-05 6.84392e-05
0.00120119 7.83527e-05 7.83527e-05
0.00127039 8.8976e-05 8.8976e-05
0.00133495 9.99425e-05 9.99425e-05
0.00139438 0.000110682 0.000110682
0.00144735 0.000121192 0.000121192
0.00149 0.000126472 0.000126472
0 0 0
7.24209e-05 2.20566e-05 4.45217e-05
0.000144134 3.38026e-05 5.28708e-05
0.000216937 3.53346e-05 5.26175e-05
0.000293843 3.35126e-05 4.89055e-05
0.000374328 3.0787e-05 4.46641e-05
0.000457454 2.84356e-05 4.11459e-05
0.000542251 2.69514e-05 3.89335e-05
0.000627874 2.65222e-05 3.82838e-05
0.000713572 2.72075e-05 3.93056e-05
0.000798654 2.90141e-05 4.20308e-05
0.000882462 3.19164e-05 4.64387e-05
0.000964361 3.58564e-05 5.24577e-05
0.00104375 4.07365e-05 5.99591e-05
0.00112007 4.64109e-05 6.87455e-05
0.00119285 5.26775e-05 7.85417e-05
0.0012617 5.92783e-05 8.89912e-05
0.00132631 6.58823e-05 9.96686e-05
0.00138643 7.22038e-05 0.000109947
0.00144202 7.75783e-05 0.000120036
0.00149 7.9882e-05 0.000125173
0 0 0
7.18788e-05 9.58903e-06 4.50183e-05
0.000141437 1.5791e-05 5.3315e-05
0.000215679 1.77806e-05 5.34487e-05
0.000293924 1.71814e-05 4.97537e-05
0.000375099 1.59018e-05 4.55484e-05
0.000458273 1.47301e-05 4.20825e-05
0.000542684 1.39874e-05 3.99364e-05
0.000627671 1.37763e-05 3.93443e-05
0.00071261 1.41216e-05 4.03996e-05
0.00079689 1.50193e-05 4.31257e-05
0.000879906 1.64506e-05 4.74961e-05
0.000961062 1.8381e-05 5.34333e-05
0.00103979 2.07558e-05 6.07993e-05
0.00111557 2.34946e-05 6.93827e-05
0.00118795 2.64862e-05 7.88848e-05
0.00125661 2.95842e-05 8.88999e-05
0.00132137 3.26283e-05 9.89157e-05
0.00138239 3.54288e-05 0.000108272
0.00143981 3.75871e-05 0.000117514
0.00149 3.84321e-05 0.000122328
0 0 0
7.16633e-05 -1.85738e-20 4.50995e-05
0.000141032 -9.43014e-21 5.35864e-05
0.000215119 7.35563e-20 5.37307e-05
0.000293777 -1.00779e-19 5.01334e-05
0.000375222 -2.74067e-19 4.59537e-05
0.000458468 -3.06219e-19 4.25173e-05
0.00054279 -8.41637e-19 4.04015e-05
0.000627587 -6.79493e-19 3.98351e-05
0.000712285 -1.13691e-18 4.09051e-05
0.000796304 -1.17063e-18 4.36307e-05
0.000879059 -1.45421e-18 4.79826e-05
0.000959969 -1.7572e-18 5.38801e-05
0.00103848 -2.13601e-18 6.1181e-05
0.00111407 -2.6005e-18 6.96672e-05
0.00118632 -2.50016e-18 7.90278e-05
0.00125491 -2.95449e-18 8.88327e-05
0.00131976 -3.09442e-18 9.8535e-05
0.00138112 -3.09061e-18 0.000107497
0.00143911 -3.48536e-18 0.000116399
0.00149 -3.3883e-18 0.00012108
0 0 0
7.18788e-05 -9.58903e-06 4.50183e-05
0.000141437 -1.5791e-05 5.3315e-05
0.000215679 -1.77806e-05 5.34487e-05
0.000293924 -1.71814e-05 4.97537e-05
0.000375099 -1.59018e-05 4.55484e-05
0.000458273 -1.47301e-05 4.20825e-05
0.000542684 -1.39874e-05 3.99364e-05
0.000627671 -1.37763e-05 3.93443e-05
0.00071261 -1.41216e-05 4.03996e-05
0.00079689 -1.50193e-05 4.31257e-05
0.000879906 -1.64506e-05 4.74961e-05
0.000961062 -1.8381e-05 5.34333e-05
0.00103979 -2.07558e-05 6.07993e-05
0.00111557 -2.34946e-05 6.93827e-05
0.00118795 -2.64862e-05 7.88848e-05
0.00125661 -2.95842e-05 8.88999e-05
0.00132137 -3.26283e-05 9.89157e-05
0.00138239 -3.54288e-05 0.000108272
0.00143981 -3.75871e-05 0.000117514
0.00149 -3.84321e-05 0.000122328
0 0 0
7.24209e-05 -2.20566e-05 4.45217e-05
0.000144134 -3.38026e-05 5.28708e-05
0.000216937 -3.53346e-05 5.26175e-05
0.000293843 -3.35126e-05 4.89055e-05
0.000374328 -3.0787e-05 4.46641e-05
0.000457454 -2.84356e-05 4.11459e-05
0.000542251 -2.69514e-05 3.89335e-05
0.000627874 -2.65222e-05 3.82838e-05
0.000713572 -2.72075e-05 3.93056e-05
0.000798654 -2.90141e-05 4.20308e-05
0.000882462 -3.19164e-05 4.64387e-05
0.000964361 -3.58564e-05 5.24577e-05
0.00104375 -4.07365e-05 5.99591e-05
0.00112007 -4.64109e-05 6.87455e-05
0.00119285 -5.26775e-05 7.85417e-05
0.0012617 -5.92783e-05 8.89912e-05
0.00132631 -6.58823e-05 9.96686e-05
0.00138643 -7.22038e-05 0.000109947
0.00144202 -7.75783e-05 0.000120036
0.00149 -7.9882e-05 0.000125173
0 0 0
8.3413e-05 -4.49975e-05 4.49975e-05
0.000148619 -5.18588e-05 5.18588e-05
0.00021685 -5.20815e-05 5.20815e-05
0.000291704 -4.84589e-05 4.84589e-05
0.000371757 -4.42699e-05 4.42699e-05
0.000455389 -4.07448e-05 4.07448e-05
0.000541195 -3.85073e-05 3.85073e-05
0.000628078 -3.78314e-05 3.78314e-05
0.000715147 -3.8836e-05 3.8836e-05
0.000801624 -4.15569e-05 4.15569e-05
0.000886792 -4.59754e-05 4.59754e-05
0.000969964 -5.20227e-05 5.20227e-05
0.00105048 -5.95742e-05 5.95742e-05
0.00112774 -6.84392e-05 6.84392e-05
0.00120119 -7.83527e-05 7.83527e-05
0.00127039 -8.8976e-05 8.8976e-05
0.00133495 -9.99425e-05 9.99425e-05
0.00139438 -0.000110682 0.000110682
0.00144735 -0.000121192 0.000121192
0.00149 -0.000126472 0.000126472
0 0 0
7.24209e-05 4.45217e-05 2.20566e-05
0.000144134 5.28708e-05 3.38026e-05
0.000216937 5.26175e-05 3.53346e-05
0.000293843 4.89055e-05 3.35126e-05
0.000374328 4.46641e-05 3.0787e-05
0.000457454 4.11459e-05 2.84356e-05
0.000542251 3.89335e-05 2.69514e-05
0.000627874 3.82838e-05 2.65222e-05
0.000713572 3.93056e-05 2.72075e-05
0.000798654 4.20308e-05 2.90141e-05
0.000882462 4.64387e-05 3.19164e-05
0.000964361 5.24577e-05 3.58564e-05
0.00104375 5.99591e-05 4.07365e-05
0.00112007 6.87455e-05 4.64109e-05
0.00119285 7.85417e-05 5.26775e-05
0.0012617 8.89912e-05 5.92783e-05
0.00132631 9.96686e-05 6.58823e-05
0.00138643 0.000109947 7.22038e-05
0.00144202 0.000120036 7.75783e-05
0.00149 0.000125173 7.9882e-05
0 0 0
6.12968e-05 2.22382e-05 2.22382e-05
0.000139346 3.39796e-05 3.39796e-05
0.00021698 3.53759e-05 3.53759e-05
0.000295947 3.34008e-05 3.34008e-05
0.000376863 3.06004e-05 3.06004e-05
0.000459481 2.82014e-05 2.82014e-05
0.000543274 2.66877e-05 2.66877e-05
0.000627647 2.62403e-05 2.62403e-05
0.00071199 2.69179e-05 2.69179e-05
0.000795695 2.87272e-05 2.87272e-05
0.000878163 3.16433e-05 3.16433e-05
0.000958814 3.56092e-05 3.56092e-05
0.0010371 4.05293e-05 4.05293e-05
0.00111253 4.62601e-05 4.62601e-05
0.00118469 5.26038e-05 5.26038e-05
0.00125326 5.93106e-05 5.93106e-05
0.00131806 6.60693e-05 6.60693e-05
0.00137895 7.26245e-05 7.26245e-05
0.00143701 7.82511e-05 7.82511e-05
0.00149 8.06665e-05 8.06665e-05
0 0 0
6.0825e-05 9.63582e-06 2.2619e-05
0.000136504 1.58092e-05 3.45993e-05
0.000215501 1.76661e-05 3.59215e-05
0.000295919 1.69529e-05 3.38282e-05
0.000377564 1.55928e-05 3.09414e-05
0.000460246 1.43682e-05 2.85115e-05
0.000543665 1.35866e-05 2.69977e-05
0.000627417 1.33492e-05 2.65616e-05
0.00071102 1.36816e-05 2.72486e-05
0.000793945 1.45813e-05 2.9059e-05
0.000875646 1.6031e-05 3.19646e-05
0.000955583 1.79984e-05 3.59061e-05
0.00103324 2.0432e-05 4.07845e-05
0.00110817 2.32562e-05 4.64512e-05
0.00118 2.63688e-05 5.26985e-05
0.00124848 2.9642e-05 5.92583e-05
0.00131354 3.29459e-05 6.58012e-05
0.0013754 3.60892e-05 7.21067e-05
0.00143515 3.85614e-05 7.75569e-05
0.00149 3.9533e-05 7.9919e-05
0 0 0
6.06098e-05 -9.99695e-21 2.27993e-05
0.000136029 -3.95271e-20 3.48368e-05
0.00021487 -1.19364e-19 3.61697e-05
0.000295712 -1.81655e-19 3.40502e-05
0.000377652 -4.32246e-19 3.11407e-05
0.000460416 -5.36422e-19 2.87017e-05
0.000543752 -6.65672e-19 2.71915e-05
0.000627321 -9.84941e-19 2.67628e-05
0.000710691 -1.22352e-18 2.74551e-05
0.000793365 -1.54749e-18 2.92653e-05
0.000874817 -1.87456e-18 3.21635e-05
0.000954521 -2.21613e-18 3.60887e-05
0.00103198 -2.57834e-18 4.094e-05
0.00110675 -2.91244e-18 4.65656e-05
0.00117847 -3.2325e-18 5.27519e-05
0.00124693 -3.5168e-18 5.92205e-05
0.00131213 -3.6294e-18 6.56351e-05
0.00137434 -3.95629e-18 7.1794e-05
0.00143459 -4.11435e-18 7.71274e-05
0.00149 -3.95548e-18 7.94458e-05
0 0 0
6.0825e-05 -9.63582e-06 2.2619e-05
0.000136504 -1.58092e-05 3.45993e-05
0.000215501 -1.76661e-05 3.59215e-05
0.000295919 -1.69529e-05 3.38282e-05
0.000377564 -1.55928e-05 3.09414e-05
0.000460246 -1.43682e-05 2.85115e-05
0.000543665 -1.35866e-05 2.69977e-05
0.000627417 -1.33492e-05 2.65616e-05
0.00071102 -1.36816e-05 2.72486e-05
0.000793945 -1.45813e-05 2.9059e-05
0.000875646 -1.6031e-05 3.19646e-05
0.000955583 -1.79984e-05 3.59061e-05
0.00103324 -2.0432e-05 4.07845e-05
0.00110817 -2.32562e-05 4.64512e-05
0.00118 -2.63688e-05 5.26985e-05
0.00124848 -2.9642e-05 5.92583e-05
0.00131354 -3.29459e-05 6.58012e-05
0.0013754 -3.60892e-05 7.21067e-05
0.00143515 -3.85614e-05 7.75569e-05
0.00149 -3.9533e-05 7.9919e-05
0 0 0
6.12968e-05 -2.22382e-05 2.22382e-05
0.000139346 -3.39796e-05 3.39796e-05
0.00021698 -3.53759e-05 3.53759e-05
0.000295947 -3.34008e-05 3.34008e-05
0.000376863 -3.06004e-05 3.06004e-05
0.000459481 -2.82014e-05 2.82014e-05
0.000543274 -2.66877e-05 2.66877e-05
0.000627647 -2.62403e-05 2.62403e-05
0.00071199 -2.69179e-05 2.69179e-05
0.000795695 -2.87272e-05 2.87272e-05
0.000878163 -3.16433e-05 3.16433e-05
0.000958814 -3.56092e-05 3.56092e-05
0.0010371 -4.05293e-05 4.05293e-05
0.00111253 -4.62601e-05 4.62601e-05
0.00118469 -5.26038e-05 5.26038e-05
0.00125326 -5.93106e-05 5.93106e-05
0.00131806 -6.60693e-05 6.60693e-05
0.00137895 -7.26245e-05 7.26245e-05
0.00143701 -7.82511e-05 7.82511e-05
0.00149 -8.06665e-05 8.06665e-05
0 0 0
7.24209e-05 -4.45217e-05 2.20566e-05
0.000144134 -5.28708e-05 3.38026e-05
0.000216937 -5.26175e-05 3.53346e-05
0.000293843 -4.89055e-05 3.35126e-05
0.000374328 -4.46641e-05 3.0787e-05
0.000457454 -4.11459e-05 2.84356e-05
0.000542251 -3.89335e-05 2.69514e-05
0.000627874 -3.82838e-05 2.65222e-05
0.000713572 -3.93056e-05 2.72075e-05
0.000798654 -4.20308e-05 2.90141e-05
0.000882462 -4.64387e-05 3.19164e-05
0.000964361 -5.24577e-05 3.58564e-05
0.00104375 -5.99591e-05 4.07365e-05
0.00112007 -6.87455e-05 4.64109e-05
0.00119285 -7.85417e-05 5.26775e-05
0.0012617 -8.89912e-05 5.92783e-05
0.00132631 -9.96686e-05 6.58823e-05
0.00138643 -0.000109947 7.22038e-05
0.00144202 -0.000120036 7.75783e-05
0.00149 -0.000125173 7.9882e-05
0 0 0
7.18788e-05 4.50183e-05 9.58903e-06
0.000141437 5.3315e-05 1.5791e-05
0.000215679 5.34487e-05 1.77806e-05
0.000293924 4.97537e-05 1.71814e-05
0.000375099 4.55484e-05 1.59018e-05
0.000458273 4.20825e-05 1.47301e-05
0.000542684 3.99364e-05 1.39874e-05
0.000627671 3.93443e-05 1.37763e-05
0.00071261 4.03996e-05 1.41216e-05
0.00079689 4.31257e-05 1.50193e-05
0.000879906 4.74961e-05 1.64506e-05
0.000961062 5.34333e-05 1.8381e-05
0.00103979 6.07993e-05 2.07558e-05
0.00111557 6.93827e-05 2.34946e-05
0.00118795 7.88848e-05 2.64862e-05
0.00125661 8.88999e-05 2.95842e-05
0.00132137 9.89157e-05 3.26283e-05
0.00138239 0.000108272 3.54288e-05
0.00143981 0.000117514 3.75871e-05
0.00149 0.000122328 3.84321e-05
0 0 0
6.0825e-05 2.2619e-05 9.63582e-06
0.000136504 3.45993e-05 1.58092e-05
0.000215501 3.59215e-05 1.76661e-05
0.000295919 3.38282e-05 1.69529e-05
0.000377564 3.09414e-05 1.55928e-05
0.000460246 2.85115e-05 1.43682e-05
0.000543665 2.69977e-05 1.35866e-05
0.000627417 2.65616e-05 1.33492e-05
0.00071102 2.72486e-05 1.36816e-05
0.000793945 2.9059e-05 1.45813e-05
0.000875646 3.19646e-05 1.6031e-05
0.000955583 3.59061e-05 1.79984e-05
0.00103324 4.07845e-05 2.0432e-05
0.00110817 4.64512e-05 2.32562e-05
0.00118 5.26985e-05 2.63688e-05
0.00124848 5.92583e-05 2.9642e-05
0.00131354 6.58012e-05 3.29459e-05
0.0013754 7.21067e-05 3.60892e-05
0.00143515 7.75569e-05 3.85614e-05
0.00149 7.9919e-05 3.9533e-05
0 0 0
6.03806e-05 9.86012e-06 9.86012e-06
0.000133586 1.60778e-05 1.60778e-05
0.000213911 1.79047e-05 1.79047e-05
0.000295775 1.71129e-05 1.71129e-05
0.000378198 1.56925e-05 1.56925e-05
0.000460975 1.44348e-05 1.44348e-05
0.000544037 1.36407e-05 1.36407e-05
0.000627177 1.34007e-05 1.34007e-05
0.000710048 1.37337e-05 1.37337e-05
0.000792201 1.46339e-05 1.46339e-05
0.000873145 1.60825e-05 1.60825e-05
0.000952378 1.80465e-05 1.80465e-05
0.00102943 2.04736e-05 2.04736e-05
0.00110388 2.32868e-05 2.32868e-05
0.0011754 2.63814e-05 2.63814e-05
0.00124381 2.96267e-05 2.96267e-05
0.00130917 3.28957e-05 3.28957e-05
0.001372 3.60105e-05 3.60105e-05
0.0014334 3.84729e-05 3.84729e-05
0.00149 3.94454e-05 3.94454e-05
0 0 0
6.01823e-05 1.61192e-19 9.95095e-06
0.0001331 -1.31719e-19 1.6215e-05
0.000213228 -1.94441e-19 1.80284e-05
0.000295529 -3.48409e-19 1.721e-05
0.000378259 -4.44422e-19 1.57667e-05
0.000461131 -7.08499e-19 1.44975e-05
0.000544116 -9.0813e-19 1.37001e-05
0.000627078 -1.05005e-18 1.34607e-05
0.000709718 -1.51661e-18 1.37949e-05
0.000791623 -1.86186e-18 1.46951e-05
0.00087232 -2.19562e-18 1.61416e-05
0.000951325 -2.71043e-18 1.81007e-05
0.00102817 -2.93749e-18 2.05197e-05
0.00110247 -3.43662e-18 2.33202e-05
0.00117389 -3.79549e-18 2.63954e-05
0.0012423 -4.01769e-18 2.96119e-05
0.0013078 -4.35226e-18 3.28427e-05
0.00137099 -4.6272e-18 3.59189e-05
0.00143288 -4.81441e-18 3.83549e-05
0.00149 -4.65382e-18 3.93186e-05
0 0 0
6.03806e-05 -9.86012e-06 9.86012e-06
0.000133586 -1.60778e-05 1.60778e-05
0.000213911 -1.79047e-05 1.79047e-05
0.000295775 -1.71129e-05 1.71129e-05
0.000378198 -1.56925e-05 1.56925e-05
0.000460975 -1.44348e-05 1.44348e-05
0.000544037 -1.36407e-05 1.36407e-05
0.000627177 -1.34007e-05 1.34007e-05
0.000710048 -1.37337e-05 1.37337e-05
0.000792201 -1.46339e-05 1.46339e-05
0.000873145 -1.60825e-05 1.60825e-05
0.000952378 -1.80465e-05 1.80465e-05
0.00102943 -2.04736e-05 2.04736e-05
0.00110388 -2.32868e-05 2.32868e-05
0.0011754 -2.63814e-05 2.63814e-05
0.00124381 -2.96267e-05 2.96267e-05
0.00130917 -3.28957e-05 3.28957e-05
0.001372 -3.60105e-05 3.60105e-05
0.0014334 -3.84729e-05 3.84729e-05
0.00149 -3.94454e-05 3.94454e-05
0 0 0
6.0825e-05 -2.2619e-05 9.63582e-06
0.000136504 -3.45993e-05 1.58092e-05
0.000215501 -3.59215e-05 1.76661e-05
0.000295919 -3.38282e-05 1.69529e-05
0.000377564 -3.09414e-05 1.55928e-05
0.000460246 -2.85115e-05 1.43682e-05
0.000543665 -2.69977e-05 1.35866e-05
0.000627417 -2.65616e-05 1.33492e-05
0.00071102 -2.72486e-05 1.36816e-05
0.000793945 -2.9059e-05 1.45813e-05
0.000875646 -3.19646e-05 1.6031e-05
0.000955583 -3.59061e-05 1.79984e-05
0.00103324 -4.07845e-05 2.0432e-05
0.00110817 -4.64512e-05 2.32562e-05
0.00118 -5.26985e-05 2.63688e-05
0.00124848 -5.92583e-05 2.9642e-05
0.00131354 -6.58012e-05 3.29459e-05
0.0013754 -7.21067e-05 3.60892e-05
0.00143515 -7.75569e-05 3.85614e-05
0.00149 -7.9919e-05 3.9533e-05
0 0 0
7.18788e-05 -4.50183e-05 9.58903e-06
0.000141437 -5.3315e-05 1.5791e-05
0.000215679 -5.34487e-05 1.77806e-05
0.000293924 -4.97537e-05 1.71814e-05
0.000375099 -4.55484e-05 1.59018e-05
0.000458273 -4.20825e-05 1.47301e-05
0.000542684 -3.99364e-05 1.39874e-05
0.000627671 -3.93443e-05 1.37763e-05
0.00071261 -4.03996e-05 1.41216e-05
0.00079689 -4.31257e-05 1.50193e-05
0.000879906 -4.74961e-05 1.64506e-05
0.000961062 -5.34333e-05 1.8381e-05
0.00103979 -6.07993e-05 2.07558e-05
0.00111557 -6.93827e-05 2.34946e-05
0.00118795 -7.88848e-05 2.64862e-05
0.00125661 -8.88999e-05 2.95842e-05
0.00132137 -9.89157e-05 3.26283e-05
0.00138239 -0.000108272 3.54288e-05
0.00143981 -0.000117514 3.75871e-05
0.00149 -0.000122328 3.84321e-05
0 0 0
7.16633e-05 4.50995e-05 5.37252e-20
0.000141032 5.35864e-05 -1.76444e-19
0.000215119 5.37307e-05 -3.76036e-19
0.000293777 5.01334e-05 -5.21816e-19
0.000375222 4.59537e-05 -4.45179e-19
0.000458468 4.25173e-05 -4.0599e-19
0.00054279 4.04015e-05 -4.00132e-19
0.000627587 3.98351e-05 -5.75317e-19
0.000712285 4.09051e-05 -8.96719e-19
0.000796304 4.36307e-05 -1.2102e-18
0.000879059 4.79826e-05 -9.92249e-19
0.000959969 5.38801e-05 -9.79953e-19
0.00103848 6.1181e-05 -9.40166e-19
0.00111407 6.96672e-05 -9.13586e-19
0.00118632 7.90278e-05 -7.42097e-19
0.00125491 8.88327e-05 -7.20372e-19
0.00131976 9.8535e-05 -1.00195e-18
0.00138112 0.000107497 -8.16316e-19
0.00143911 0.000116399 -8.85196e-19
0.00149 0.00012108 -7.76817e-19
0 0 0
6.06098e-05 2.27993e-05 -1.16207e-22
0.000136029 3.48368e-05 -6.81865e-21
0.00021487 3.61697e-05 -4.43276e-20
0.000295712 3.40502e-05 -3.33627e-20
0.000377652 3.11407e-05 -3.9189e-19
0.000460416 2.87017e-05 -4.04438e-19
0.000543752 2.71915e-05 -6.33706e-19
0.000627321 2.67628e-05 -6.19562e-19
0.000710691 2.74551e-05 -6.44585e-19
0.000793365 2.92653e-05 -7.37601e-19
0.000874817 3.21635e-05 -7.2071e-19
0.000954521 3.60887e-05 -7.11187e-19
0.00103198 4.094e-05 -3.86363e-19
0.00110675 4.65656e-05 -4.35129e-19
0.00117847 5.27519e-05 -3.46102e-19
0.00124693 5.92205e-05 -2.2984e-19
0.00131213 6.56351e-05 -4.5937e-19
0.00137434 7.1794e-05 -2.84411e-19
0.00143459 7.71274e-05 -3.51392e-19
0.00149 7.94458e-05 -2.46922e-20
0 0 0
6.01823e-05 9.95095e-06 1.40365e-19
0.0001331 1.6215e-05 1.94802e-19
0.000213228 1.80284e-05 6.35701e-20
0.000295529 1.721e-05 2.24408e-20
0.000378259 1.57667e-05 -9.2999e-20
0.000461131 1.44975e-05 -2.63143e-19
0.000544116 1.37001e-05 -2.14835e-19
0.000627078 1.34607e-05 -4.42267e-19
0.000709718 1.37949e-05 -4.17111e-19
0.000791623 1.46951e-05 -3.90692e-19
0.00087232 1.61416e-05 -3.51719e-19
0.000951325 1.81007e-05 -2.70056e-19
0.00102817 2.05197e-05 -1.88777e-19
0.00110247 2.33202e-05 -2.10699e-19
0.00117389 2.63954e-05 1.65539e-19
0.0012423 2.96119e-05 1.02816e-19
0.0013078 3.28427e-05 1.80238e-19
0.00137099 3.59189e-05 1.56918e-19
0.00143288 3.83549e-05 1.89793e-19
0.00149 3.93186e-05 1.34259e-19
0 0 0
5.99822e-05 5.13348e-20 -7.4754e-20
0.000132607 -1.28868e-19 7.75118e-20
0.000212534 -3.72985e-19 2.06315e-19
0.000295267 -5.23358e-19 1.04057e-19
0.00037831 -7.44591e-19 1.44294e-19
0.000461281 -7.67818e-19 9.94089e-21
0.000544193 -1.19778e-18 1.8807e-20
0.000626978 -1.56021e-18 -1.34686e-19
0.000709389 -2.07642e-18 -1.28429e-19
0.000791046 -2.15181e-18 -1.67984e-20
0.000871497 -2.51478e-18 8.61066e-20
0.000950273 -2.9436e-18 1.65356e-19
0.00102692 -3.41565e-18 3.68755e-19
0.00110106 -3.69712e-18 2.45274e-19
0.00117239 -4.17947e-18 4.44394e-19
0.00124079 -4.5066e-18 6.30199e-19
0.00130645 -4.89738e-18 6.27631e-19
0.00137 -5.03351e-18 6.22115e-19
0.00143237 -5.10776e-18 2.62131e-19
0.00149 -5.34369e-18 4.76416e-19
0 0 0
6.01823e-05 -9.95095e-06 3.71618e-20
0.0001331 -1.6215e-05 9.93431e-20
0.000213228 -1.80284e-05 2.08366e-19
0.000295529 -1.721e-05 2.61098e-19
0.000378259 -1.57667e-05 2.82258e-19
0.000461131 -1.44975e-05 2.06504e-19
0.000544116 -1.37001e-05 2.50066e-19
0.000627078 -1.34607e-05 2.85394e-19
0.000709718 -1.37949e-05 2.78303e-19
0.000791623 -1.46951e-05 3.84168e-19
0.00087232 -1.61416e-05 4.54544e-19
0.000951325 -1.81007e-05 5.16321e-19
0.00102817 -2.05197e-05 6.04573e-19
0.00110247 -2.33202e-05 7.51892e-19
0.00117389 -2.63954e-05 9.42589e-19
0.0012423 -2.96119e-05 1.11014e-18
0.0013078 -3.28427e-05 1.21719e-18
0.00137099 -3.59189e-05 9.2794e-19
0.00143288 -3.83549e-05 8.17209e-19
0.00149 -3.93186e-05 1.0193e-18
0 0 0
6.06098e-05 -2.27993e-05 2.009e-19
0.000136029 -3.48368e-05 2.56717e-19
0.00021487 -3.61697e-05 3.4718e-19
0.000295712 -3.40502e-05 4.95304e-19
0.000377652 -3.11407e-05 4.60296e-19
0.000460416 -2.87017e-05 5.17502e-19
0.000543752 -2.71915e-05 4.92327e-19
0.000627321 -2.67628e-05 6.84094e-19
0.000710691 -2.74551e-05 6.05059e-19
0.000793365 -2.92653e-05 7.62799e-19
0.000874817 -3.21635e-05 8.53788e-19
0.000954521 -3.60887e-05 8.66311e-19
0.00103198 -4.094e-05 1.10125e-18
0.00110675 -4.65656e-05 1.19608e-18
0.00117847 -5.27519e-05 1.35088e-18
0.00124693 -5.92205e-05 1.46957e-18
0.00131213 -6.56351e-05 1.48444e-18
0.00137434 -7.1794e-05 1.51333e-18
0.00143459 -7.71274e-05 1.40925e-18
0.00149 -7.94458e-05 1.56588e-18
0 0 0
7.16633e-05 -4.50995e-05 4.27152e-20
0.000141032 -5.35864e-05 4.43368e-19
0.000215119 -5.37307e-05 3.6302e-19
0.000293777 -5.01334e-05 5.37944e-19
0.000375222 -4.59537e-05 7.49335e-19
0.000458468 -4.25173e-05 8.13771e-19
0.00054279 -4.04015e-05 8.19715e-19
0.000627587 -3.98351e-05 9.3176e-19
0.000712285 -4.09051e-05 1.08431e-18
0.000796304 -4.36307e-05 1.12841e-18