<?xml version="1.0"?>
<VTKFile type="UnstructuredGrid" version="0.1" byte_order="LittleEndian">
<UnstructuredGrid>
<Piece NumberOfPoints="8" NumberOfCells="1">
<Points>
<DataArray type="Float32" NumberOfComponents="3" format="ascii">
0 0 0
0.1 0 0
0 0.03 0
0.1 0.03 0
0 0 0.03
0.1 0 0.03
0 0.03 0.03
0.1 0.03 0.03
</DataArray>
</Points>
<Cells>
<DataArray type="Int32" Name="connectivity" format="ascii">
0 1 3 2 4 5 7 6 
</DataArray>
<DataArray type="Int32" Name="offsets" format="ascii">
8 
</DataArray>
<DataArray type="UInt8" Name="types" format="ascii">
12 
</DataArray>
</Cells>
<PointData Vectors="Displacement">
<DataArray type="Float32" Name="Displacement" NumberOfComponents="3" format="ascii">
0.04945 0 0
0.04945 -6.79974e-18 1.09367e-17
0.04945 0 0
0.04945 -1.71091e-18 -3.93632e-18
0.04945 0 0
0.04945 7.97502e-18 1.72398e-17
0.04945 0 0
0.04945 1.33942e-17 1.39822e-18
</DataArray>
</PointData>
</Piece>
</UnstructuredGrid>
</VTKFile>
