<?xml version="1.0"?>
<VTKFile type="UnstructuredGrid" version="0.1" byte_order="LittleEndian">
<UnstructuredGrid>
<Piece NumberOfPoints="1029" NumberOfCells="720">
<Points>
<DataArray type="Float32" NumberOfComponents="3" format="ascii">
0 0 0
0.005 0 0
0.01 0 0
0.015 0 0
0.02 0 0
0.025 0 0
0.03 0 0
0.035 0 0
0.04 0 0
0.045 0 0
0.05 0 0
0.055 0 0
0.06 0 0
0.065 0 0
0.07 0 0
0.075 0 0
0.08 0 0
0.085 0 0
0.09 0 0
0.095 0 0
0.1 0 0
0 0.005 0
0.005 0.005 0
0.01 0.005 0
0.015 0.005 0
0.02 0.005 0
0.025 0.005 0
0.03 0.005 0
0.035 0.005 0
0.04 0.005 0
0.045 0.005 0
0.05 0.005 0
0.055 0.005 0
0.06 0.005 0
0.065 0.005 0
0.07 0.005 0
0.075 0.005 0
0.08 0.005 0
0.085 0.005 0
0.09 0.005 0
0.095 0.005 0
0.1 0.005 0
0 0.01 0
0.005 0.01 0
0.01 0.01 0
0.015 0.01 0
0.02 0.01 0
0.025 0.01 0
0.03 0.01 0
0.035 0.01 0
0.04 0.01 0
0.045 0.01 0
0.05 0.01 0
0.055 0.01 0
0.06 0.01 0
0.065 0.01 0
0.07 0.01 0
0.075 0.01 0
0.08 0.01 0
0.085 0.01 0
0.09 0.01 0
0.095 0.01 0
0.1 0.01 0
0 0.015 0
0.005 0.015 0
0.01 0.015 0
0.015 0.015 0
0.02 0.015 0
0.025 0.015 0
0.03 0.015 0
0.035 0.015 0
0.04 0.015 0
0.045 0.015 0
0.05 0.015 0
0.055 0.015 0
0.06 0.015 0
0.065 0.015 0
0.07 0.015 0
0.075 0.015 0
0.08 0.015 0
0.085 0.015 0
0.09 0.015 0
0.095 0.015 0
0.1 0.015 0
0 0.02 0
0.005 0.02 0
0.01 0.02 0
0.015 0.02 0
0.02 0.02 0
0.025 0.02 0
0.03 0.02 0
0.035 0.02 0
0.04 0.02 0
0.045 0.02 0
0.05 0.02 0
0.055 0.02 0
0.06 0.02 0
0.065 0.02 0
0.07 0.02 0
0.075 0.02 0
0.08 0.02 0
0.085 0.02 0
0.09 0.02 0
0.095 0.02 0
0.1 0.02 0
0 0.025 0
0.005 0.025 0
0.01 0.025 0
0.015 0.025 0
0.02 0.025 0
0.025 0.025 0
0.03 0.025 0
0.035 0.025 0
0.04 0.025 0
0.045 0.025 0
0.05 0.025 0
0.055 0.025 0
0.06 0.025 0
0.065 0.025 0
0.07 0.025 0
0.075 0.025 0
0.08 0.025 0
0.085 0.025 0
0.09 0.025 0
0.095 0.025 0
0.1 0.025 0
0 0.03 0
0.005 0.03 0
0.01 0.03 0
0.015 0.03 0
0.02 0.03 0
0.025 0.03 0
0.03 0.03 0
0.035 0.03 0
0.04 0.03 0
0.045 0.03 0
0.05 0.03 0
0.055 0.03 0
0.06 0.03 0
0.065 0.03 0
0.07 0.03 0
0.075 0.03 0
0.08 0.03 0
0.085 0.03 0
0.09 0.03 0
0.095 0.03 0
0.1 0.03 0
0 0 0.005
0.005 0 0.005
0.01 0 0.005
0.015 0 0.005
0.02 0 0.005
0.025 0 0.005
0.03 0 0.005
0.035 0 0.005
0.04 0 0.005
0.045 0 0.005
0.05 0 0.005
0.055 0 0.005
0.06 0 0.005
0.065 0 0.005
0.07 0 0.005
0.075 0 0.005
0.08 0 0.005
0.085 0 0.005
0.09 0 0.005
0.095 0 0.005
0.1 0 0.005
0 0.005 0.005
0.005 0.005 0.005
0.01 0.005 0.005
0.015 0.005 0.005
0.02 0.005 0.005
0.025 0.005 0.005
0.03 0.005 0.005
0.035 0.005 0.005
0.04 0.005 0.005
0.045 0.005 0.005
0.05 0.005 0.005
0.055 0.005 0.005
0.06 0.005 0.005
0.065 0.005 0.005
0.07 0.005 0.005
0.075 0.005 0.005
0.08 0.005 0.005
0.085 0.005 0.005
0.09 0.005 0.005
0.095 0.005 0.005
0.1 0.005 0.005
0 0.01 0.005
0.005 0.01 0.005
0.01 0.01 0.005
0.015 0.01 0.005
0.02 0.01 0.005
0.025 0.01 0.005
0.03 0.01 0.005
0.035 0.01 0.005
0.04 0.01 0.005
0.045 0.01 0.005
0.05 0.01 0.005
0.055 0.01 0.005
0.06 0.01 0.005
0.065 0.01 0.005
0.07 0.01 0.005
0.075 0.01 0.005
0.08 0.01 0.005
0.085 0.01 0.005
0.09 0.01 0.005
0.095 0.01 0.005
0.1 0.01 0.005
0 0.015 0.005
0.005 0.015 0.005
0.01 0.015 0.005
0.015 0.015 0.005
0.02 0.015 0.005
0.025 0.015 0.005
0.03 0.015 0.005
0.035 0.015 0.005
0.04 0.015 0.005
0.045 0.015 0.005
0.05 0.015 0.005
0.055 0.015 0.005
0.06 0.015 0.005
0.065 0.015 0.005
0.07 0.015 0.005
0.075 0.015 0.005
0.08 0.015 0.005
0.085 0.015 0.005
0.09 0.015 0.005
0.095 0.015 0.005
0.1 0.015 0.005
0 0.02 0.005
0.005 0.02 0.005
0.01 0.02 0.005
0.015 0.02 0.005
0.02 0.02 0.005
0.025 0.02 0.005
0.03 0.02 0.005
0.035 0.02 0.005
0.04 0.02 0.005
0.045 0.02 0.005
0.05 0.02 0.005
0.055 0.02 0.005
0.06 0.02 0.005
0.065 0.02 0.005
0.07 0.02 0.005
0.075 0.02 0.005
0.08 0.02 0.005
0.085 0.02 0.005
0.09 0.02 0.005
0.095 0.02 0.005
0.1 0.02 0.005
0 0.025 0.005
0.005 0.025 0.005
0.01 0.025 0.005
0.015 0.025 0.005
0.02 0.025 0.005
0.025 0.025 0.005
0.03 0.025 0.005
0.035 0.025 0.005
0.04 0.025 0.005
0.045 0.025 0.005
0.05 0.025 0.005
0.055 0.025 0.005
0.06 0.025 0.005
0.065 0.025 0.005
0.07 0.025 0.005
0.075 0.025 0.005
0.08 0.025 0.005
0.085 0.025 0.005
0.09 0.025 0.005
0.095 0.025 0.005
0.1 0.025 0.005
0 0.03 0.005
0.005 0.03 0.005
0.01 0.03 0.005
0.015 0.03 0.005
0.02 0.03 0.005
0.025 0.03 0.005
0.03 0.03 0.005
0.035 0.03 0.005
0.04 0.03 0.005
0.045 0.03 0.005
0.05 0.03 0.005
0.055 0.03 0.005
0.06 0.03 0.005
0.065 0.03 0.005
0.07 0.03 0.005
0.075 0.03 0.005
0.08 0.03 0.005
0.085 0.03 0.005
0.09 0.03 0.005
0.095 0.03 0.005
0.1 0.03 0.005
0 0 0.01
0.005 0 0.01
0.01 0 0.01
0.015 0 0.01
0.02 0 0.01
0.025 0 0.01
0.03 0 0.01
0.035 0 0.01
0.04 0 0.01
0.045 0 0.01
0.05 0 0.01
0.055 0 0.01
0.06 0 0.01
0.065 0 0.01
0.07 0 0.01
0.075 0 0.01
0.08 0 0.01
0.085 0 0.01
0.09 0 0.01
0.095 0 0.01
0.1 0 0.01
0 0.005 0.01
0.005 0.005 0.01
0.01 0.005 0.01
0.015 0.005 0.01
0.02 0.005 0.01
0.025 0.005 0.01
0.03 0.005 0.01
0.035 0.005 0.01
0.04 0.005 0.01
0.045 0.005 0.01
0.05 0.005 0.01
0.055 0.005 0.01
0.06 0.005 0.01
0.065 0.005 0.01
0.07 0.005 0.01
0.075 0.005 0.01
0.08 0.005 0.01
0.085 0.005 0.01
0.09 0.005 0.01
0.095 0.005 0.01
0.1 0.005 0.01
0 0.01 0.01
0.005 0.01 0.01
0.01 0.01 0.01
0.015 0.01 0.01
0.02 0.01 0.01
0.025 0.01 0.01
0.03 0.01 0.01
0.035 0.01 0.01
0.04 0.01 0.01
0.045 0.01 0.01
0.05 0.01 0.01
0.055 0.01 0.01
0.06 0.01 0.01
0.065 0.01 0.01
0.07 0.01 0.01
0.075 0.01 0.01
0.08 0.01 0.01
0.085 0.01 0.01
0.09 0.01 0.01
0.095 0.01 0.01
0.1 0.01 0.01
0 0.015 0.01
0.005 0.015 0.01
0.01 0.015 0.01
0.015 0.015 0.01
0.02 0.015 0.01
0.025 0.015 0.01
0.03 0.015 0.01
0.035 0.015 0.01
0.04 0.015 0.01
0.045 0.015 0.01
0.05 0.015 0.01
0.055 0.015 0.01
0.06 0.015 0.01
0.065 0.015 0.01
0.07 0.015 0.01
0.075 0.015 0.01
0.08 0.015 0.01
0.085 0.015 0.01
0.09 0.015 0.01
0.095 0.015 0.01
0.1 0.015 0.01
0 0.02 0.01
0.005 0.02 0.01
0.01 0.02 0.01
0.015 0.02 0.01
0.02 0.02 0.01
0.025 0.02 0.01
0.03 0.02 0.01
0.035 0.02 0.01
0.04 0.02 0.01
0.045 0.02 0.01
0.05 0.02 0.01
0.055 0.02 0.01
0.06 0.02 0.01
0.065 0.02 0.01
0.07 0.02 0.01
0.075 0.02 0.01
0.08 0.02 0.01
0.085 0.02 0.01
0.09 0.02 0.01
0.095 0.02 0.01
0.1 0.02 0.01
0 0.025 0.01
0.005 0.025 0.01
0.01 0.025 0.01
0.015 0.025 0.01
0.02 0.025 0.01
0.025 0.025 0.01
0.03 0.025 0.01
0.035 0.025 0.01
0.04 0.025 0.01
0.045 0.025 0.01
0.05 0.025 0.01
0.055 0.025 0.01
0.06 0.025 0.01
0.065 0.025 0.01
0.07 0.025 0.01
0.075 0.025 0.01
0.08 0.025 0.01
0.085 0.025 0.01
0.09 0.025 0.01
0.095 0.025 0.01
0.1 0.025 0.01
0 0.03 0.01
0.005 0.03 0.01
0.01 0.03 0.01
0.015 0.03 0.01
0.02 0.03 0.01
0.025 0.03 0.01
0.03 0.03 0.01
0.035 0.03 0.01
0.04 0.03 0.01
0.045 0.03 0.01
0.05 0.03 0.01
0.055 0.03 0.01
0.06 0.03 0.01
0.065 0.03 0.01
0.07 0.03 0.01
0.075 0.03 0.01
0.08 0.03 0.01
0.085 0.03 0.01
0.09 0.03 0.01
0.095 0.03 0.01
0.1 0.03 0.01
0 0 0.015
0.005 0 0.015
0.01 0 0.015
0.015 0 0.015
0.02 0 0.015
0.025 0 0.015
0.03 0 0.015
0.035 0 0.015
0.04 0 0.015
0.045 0 0.015
0.05 0 0.015
0.055 0 0.015
0.06 0 0.015
0.065 0 0.015
0.07 0 0.015
0.075 0 0.015
0.08 0 0.015
0.085 0 0.015
0.09 0 0.015
0.095 0 0.015
0.1 0 0.015
0 0.005 0.015
0.005 0.005 0.015
0.01 0.005 0.015
0.015 0.005 0.015
0.02 0.005 0.015
0.025 0.005 0.015
0.03 0.005 0.015
0.035 0.005 0.015
0.04 0.005 0.015
0.045 0.005 0.015
0.05 0.005 0.015
0.055 0.005 0.015
0.06 0.005 0.015
0.065 0.005 0.015
0.07 0.005 0.015
0.075 0.005 0.015
0.08 0.005 0.015
0.085 0.005 0.015
0.09 0.005 0.015
0.095 0.005 0.015
0.1 0.005 0.015
0 0.01 0.015
0.005 0.01 0.015
0.01 0.01 0.015
0.015 0.01 0.015
0.02 0.01 0.015
0.025 0.01 0.015
0.03 0.01 0.015
0.035 0.01 0.015
0.04 0.01 0.015
0.045 0.01 0.015
0.05 0.01 0.015
0.055 0.01 0.015
0.06 0.01 0.015
0.065 0.01 0.015
0.07 0.01 0.015
0.075 0.01 0.015
0.08 0.01 0.015
0.085 0.01 0.015
0.09 0.01 0.015
0.095 0.01 0.015
0.1 0.01 0.015
0 0.015 0.015
0.005 0.015 0.015
0.01 0.015 0.015
0.015 0.015 0.015
0.02 0.015 0.015
0.025 0.015 0.015
0.03 0.015 0.015
0.035 0.015 0.015
0.04 0.015 0.015
0.045 0.015 0.015
0.05 0.015 0.015
0.055 0.015 0.015
0.06 0.015 0.015
0.065 0.015 0.015
0.07 0.015 0.015
0.075 0.015 0.015
0.08 0.015 0.015
0.085 0.015 0.015
0.09 0.015 0.015
0.095 0.015 0.015
0.1 0.015 0.015
0 0.02 0.015
0.005 0.02 0.015
0.01 0.02 0.015
0.015 0.02 0.015
0.02 0.02 0.015
0.025 0.02 0.015
0.03 0.02 0.015
0.035 0.02 0.015
0.04 0.02 0.015
0.045 0.02 0.015
0.05 0.02 0.015
0.055 0.02 0.015
0.06 0.02 0.015
0.065 0.02 0.015
0.07 0.02 0.015
0.075 0.02 0.015
0.08 0.02 0.015
0.085 0.02 0.015
0.09 0.02 0.015
0.095 0.02 0.015
0.1 0.02 0.015
0 0.025 0.015
0.005 0.025 0.015
0.01 0.025 0.015
0.015 0.025 0.015
0.02 0.025 0.015
0.025 0.025 0.015
0.03 0.025 0.015
0.035 0.025 0.015
0.04 0.025 0.015
0.045 0.025 0.015
0.05 0.025 0.015
0.055 0.025 0.015
0.06 0.025 0.015
0.065 0.025 0.015
0.07 0.025 0.015
0.075 0.025 0.015
0.08 0.025 0.015
0.085 0.025 0.015
0.09 0.025 0.015
0.095 0.025 0.015
0.1 0.025 0.015
0 0.03 0.015
0.005 0.03 0.015
0.01 0.03 0.015
0.015 0.03 0.015
0.02 0.03 0.015
0.025 0.03 0.015
0.03 0.03 0.015
0.035 0.03 0.015
0.04 0.03 0.015
0.045 0.03 0.015
0.05 0.03 0.015
0.055 0.03 0.015
0.06 0.03 0.015
0.065 0.03 0.015
0.07 0.03 0.015
0.075 0.03 0.015
0.08 0.03 0.015
0.085 0.03 0.015
0.09 0.03 0.015
0.095 0.03 0.015
0.1 0.03 0.015
0 0 0.02
0.005 0 0.02
0.01 0 0.02
0.015 0 0.02
0.02 0 0.02
0.025 0 0.02
0.03 0 0.02
0.035 0 0.02
0.04 0 0.02
0.045 0 0.02
0.05 0 0.02
0.055 0 0.02
0.06 0 0.02
0.065 0 0.02
0.07 0 0.02
0.075 0 0.02
0.08 0 0.02
0.085 0 0.02
0.09 0 0.02
0.095 0 0.02
0.1 0 0.02
0 0.005 0.02
0.005 0.005 0.02
0.01 0.005 0.02
0.015 0.005 0.02
0.02 0.005 0.02
0.025 0.005 0.02
0.03 0.005 0.02
0.035 0.005 0.02
0.04 0.005 0.02
0.045 0.005 0.02
0.05 0.005 0.02
0.055 0.005 0.02
0.06 0.005 0.02
0.065 0.005 0.02
0.07 0.005 0.02
0.075 0.005 0.02
0.08 0.005 0.02
0.085 0.005 0.02
0.09 0.005 0.02
0.095 0.005 0.02
0.1 0.005 0.02
0 0.01 0.02
0.005 0.01 0.02
0.01 0.01 0.02
0.015 0.01 0.02
0.02 0.01 0.02
0.025 0.01 0.02
0.03 0.01 0.02
0.035 0.01 0.02
0.04 0.01 0.02
0.045 0.01 0.02
0.05 0.01 0.02
0.055 0.01 0.02
0.06 0.01 0.02
0.065 0.01 0.02
0.07 0.01 0.02
0.075 0.01 0.02
0.08 0.01 0.02
0.085 0.01 0.02
0.09 0.01 0.02
0.095 0.01 0.02
[...]
<PointData Vectors="Displacement">
<DataArray type="Float32" Name="Displacement" NumberOfComponents="3" format="ascii">
0 0 0
0.000116342 6.40738e-05 6.0767e-05
0.000207386 7.67844e-05 6.9984e-05
0.000301233 8.08863e-05 7.06358e-05
0.000402949 7.96544e-05 6.60375e-05
0.000510788 7.73203e-05 6.04683e-05
0.00062275 7.53912e-05 5.54869e-05
0.000737137 7.45919e-05 5.18666e-05
0.000852692 7.52005e-05 4.99297e-05
0.00096845 7.73136e-05 4.98094e-05
0.00108361 8.09434e-05 5.15452e-05
0.00119746 8.60563e-05 5.51185e-05
0.00130932 9.25808e-05 6.04589e-05
0.00141855 0.000100402 6.74375e-05
0.00152454 0.000109352 7.58563e-05
0.00162678 0.0001192 8.54397e-05
0.00172481 0.000129652 9.58359e-05
0.00181824 0.000140393 0.000106664
0.00190657 0.00015091 0.000117338
0.00198846 0.000161253 0.000127831
0.00206 0.00016647 0.00013311
0 0 0
9.98831e-05 3.28325e-05 6.10581e-05
0.000199081 5.15856e-05 7.27166e-05
0.000298994 5.6504e-05 7.31486e-05
0.000403624 5.68335e-05 6.89254e-05
0.000512341 5.57536e-05 6.37984e-05
0.000624024 5.48695e-05 5.93284e-05
0.000737537 5.47449e-05 5.62143e-05
0.000851938 5.55566e-05 5.47432e-05
0.00096643 5.73327e-05 5.5026e-05
0.00108031 6.00525e-05 5.70906e-05
0.00119291 6.36746e-05 6.09125e-05
0.00130361 6.81376e-05 6.64176e-05
0.00141181 7.33527e-05 7.3475e-05
0.00151696 7.91943e-05 8.18854e-05
0.00161858 8.54902e-05 9.13712e-05
0.00171628 9.20209e-05 0.000101573
0.00180977 9.84984e-05 0.000112064
0.00189876 0.000104681 0.000122214
0.0019832 0.000109948 0.000132224
0.00206 0.000112211 0.000137334
0 0 0
9.90744e-05 1.53699e-05 6.26524e-05
0.000194896 2.60579e-05 7.47773e-05
0.000296611 3.096e-05 7.60713e-05
0.000403096 3.22881e-05 7.22257e-05
0.000512888 3.25873e-05 6.75496e-05
0.00062483 3.2851e-05 6.35685e-05
0.000738056 3.34463e-05 6.09537e-05
0.000851859 3.44599e-05 5.99456e-05
0.000965603 3.58886e-05 6.0625e-05
0.00107868 3.77057e-05 6.30029e-05
0.00119049 3.98797e-05 6.70452e-05
0.00130044 4.23739e-05 7.26719e-05
0.00140797 4.51417e-05 7.97455e-05
0.00151256 4.81199e-05 8.80577e-05
0.00161378 5.1223e-05 9.7315e-05
0.00171127 5.43365e-05 0.000107118
0.00180488 5.73361e-05 0.000116961
0.00189475 6.00688e-05 0.000126187
0.001981 6.21713e-05 0.000135347
0.00206 6.29958e-05 0.000140133
0 0 0
9.91446e-05 1.65476e-06 6.33141e-05
0.000194686 3.35046e-06 7.63597e-05
0.000296117 5.05243e-06 7.81694e-05
0.000403152 6.70913e-06 7.49162e-05
0.000513331 8.29414e-06 7.07308e-05
0.000625409 9.78655e-06 6.72382e-05
0.000738557 1.11656e-05 6.50904e-05
0.000852149 1.24117e-05 6.45101e-05
0.000965614 1.35082e-05 6.55622e-05
0.00107838 1.44433e-05 6.82476e-05
0.00118988 1.52104e-05 7.25271e-05
0.00129953 1.58101e-05 7.83176e-05
0.0014068 1.62498e-05 8.54799e-05
0.00151117 1.65443e-05 9.38041e-05
0.00161221 1.67153e-05 0.000102992
0.00170961 1.679e-05 0.000112627
0.00180328 1.67998e-05 0.000122178
0.00189347 1.67768e-05 0.000131021
0.0019803 1.67501e-05 0.000139845
0.00206 1.67395e-05 0.0001445
0 0 0
9.99792e-05 -1.20519e-05 6.3489e-05
0.000196036 -1.93398e-05 7.69233e-05
0.000297728 -2.08267e-05 7.94051e-05
0.000404162 -1.88313e-05 7.66571e-05
0.000513898 -1.59481e-05 7.30206e-05
0.000625775 -1.3214e-05 7.0018e-05
0.000738921 -1.1039e-05 6.8308e-05
0.000852631 -9.54994e-06 6.81183e-05
0.000966272 -8.77746e-06 6.95194e-05
0.00107924 -8.71956e-06 7.25149e-05
0.00119093 -9.3577e-06 7.70673e-05
0.00130077 -1.0655e-05 8.3097e-05
0.0014082 -1.25498e-05 9.04718e-05
0.0015127 -1.49493e-05 9.89934e-05
0.00161384 -1.77244e-05 0.000108382
0.00171128 -2.07055e-05 0.000118257
0.00180486 -2.37047e-05 0.000128131
0.00189471 -2.65028e-05 0.000137368
0.00198098 -2.86743e-05 0.000146531
0.00206 -2.95263e-05 0.000151317
0 0 0
0.000101321 -2.95151e-05 6.29217e-05
0.000200667 -4.48216e-05 7.71331e-05
0.000300526 -4.63e-05 7.98813e-05
0.000405097 -4.32786e-05 7.78645e-05
0.000513742 -3.89837e-05 7.48424e-05
0.000625334 -3.50679e-05 7.23553e-05
0.000738737 -3.21414e-05 7.10743e-05
0.000853008 -3.04234e-05 7.12602e-05
0.000967355 -2.99776e-05 7.30017e-05
0.00108108 -3.08095e-05 7.63111e-05
0.00119352 -3.28918e-05 8.11558e-05
0.00130406 -3.61638e-05 8.74624e-05
0.00141211 -4.05223e-05 9.51103e-05
0.00151713 -4.58116e-05 0.00010392
0.00161865 -5.18155e-05 0.000113642
0.00171627 -5.82576e-05 0.000123955
0.00180972 -6.47846e-05 0.000134472
0.0018987 -7.1084e-05 0.000144606
0.00198316 -7.64649e-05 0.000154596
0.00206 -7.87759e-05 0.000159699
0 0 0
0.000116342 -6.0767e-05 6.40738e-05
0.000207386 -6.9984e-05 7.67844e-05
0.000301233 -7.06358e-05 8.08863e-05
0.000402949 -6.60375e-05 7.96544e-05
0.000510788 -6.04683e-05 7.73203e-05
0.00062275 -5.54869e-05 7.53912e-05
0.000737137 -5.18666e-05 7.45919e-05
0.000852692 -4.99297e-05 7.52005e-05
0.00096845 -4.98094e-05 7.73136e-05
0.00108361 -5.15452e-05 8.09434e-05
0.00119746 -5.51185e-05 8.60563e-05
0.00130932 -6.04589e-05 9.25808e-05
0.00141855 -6.74375e-05 0.000100402
0.00152454 -7.58563e-05 0.000109352
0.00162678 -8.54397e-05 0.0001192
0.00172481 -9.58359e-05 0.000129652
0.00181824 -0.000106664 0.000140393
0.00190657 -0.000117338 0.00015091
0.00198846 -0.000127831 0.000161253
0.00206 -0.00013311 0.00016647
0 0 0
0.000101321 6.29217e-05 2.95151e-05
0.000200667 7.71331e-05 4.48216e-05
0.000300526 7.98813e-05 4.63e-05
0.000405097 7.78645e-05 4.32786e-05
0.000513742 7.48424e-05 3.89837e-05
0.000625334 7.23553e-05 3.50679e-05
0.000738737 7.10743e-05 3.21414e-05
0.000853008 7.12602e-05 3.04234e-05
0.000967355 7.30017e-05 2.99776e-05
0.00108108 7.63111e-05 3.08095e-05
0.00119352 8.11558e-05 3.28918e-05
0.00130406 8.74624e-05 3.61638e-05
0.00141211 9.51103e-05 4.05223e-05
0.00151713 0.00010392 4.58116e-05
0.00161865 0.000113642 5.18155e-05
0.00171627 0.000123955 5.82576e-05
0.00180972 0.000134472 6.47846e-05
0.0018987 0.000144606 7.1084e-05
0.00198316 0.000154596 7.64649e-05
0.00206 0.000159699 7.87759e-05
0 0 0
8.4589e-05 3.2381e-05 3.02581e-05
0.000192036 5.05887e-05 4.61607e-05
0.000298335 5.48018e-05 4.80777e-05
0.000405801 5.43957e-05 4.54671e-05
0.000515298 5.26924e-05 4.16586e-05
0.000626591 5.12416e-05 3.82254e-05
0.000739113 5.06072e-05 3.57588e-05
0.000852235 5.0967e-05 3.44625e-05
0.00096533 5.23554e-05 3.43922e-05
0.00107778 5.47572e-05 3.55487e-05
0.001189 5.8135e-05 3.79022e-05
0.0012984 6.24293e-05 4.13927e-05
0.00140545 6.75511e-05 4.59207e-05
0.00150966 7.3372e-05 5.13384e-05
0.00161061 7.97166e-05 5.74414e-05
0.001708 8.63631e-05 6.39719e-05
0.00180162 9.3032e-05 7.06091e-05
0.00189134 9.94984e-05 7.70862e-05
0.00197822 0.000105065 8.267e-05
0.00206 0.000107461 8.50723e-05
0 0 0
8.34623e-05 1.47796e-05 3.14319e-05
0.000187362 2.48524e-05 4.82335e-05
0.000295408 2.9061e-05 5.05519e-05
0.000404871 2.97425e-05 4.82702e-05
0.000515482 2.94447e-05 4.48331e-05
0.000627058 2.91622e-05 4.18327e-05
0.00073932 2.92568e-05 3.98127e-05
0.000851884 2.98238e-05 3.89398e-05
0.00096428 3.08692e-05 3.9245e-05
0.00107599 3.23734e-05 4.07156e-05
0.00118647 3.43092e-05 4.33157e-05
0.00129519 3.66427e-05 4.69825e-05
0.00140164 3.9328e-05 5.16159e-05
0.00150537 4.23017e-05 5.70676e-05
0.00160601 4.54797e-05 6.31309e-05
0.0017033 4.87568e-05 6.95387e-05
0.00179717 5.20279e-05 7.59611e-05
0.00188783 5.51276e-05 8.21773e-05
0.00197638 5.75674e-05 8.75736e-05
0.00206 5.85282e-05 8.99189e-05
0 0 0
8.31386e-05 1.13746e-06 3.22443e-05
0.000186649 2.24637e-06 4.97047e-05
0.000294453 3.35773e-06 5.25799e-05
0.000404495 4.45099e-06 5.07728e-05
0.000515536 5.50007e-06 4.77986e-05
0.000627274 6.48779e-06 4.52585e-05
0.000739489 7.40039e-06 4.36854e-05
0.000851881 8.22535e-06 4.32255e-05
0.000964043 8.9522e-06 4.3896e-05
0.00107549 9.57338e-06 4.56757e-05
0.00118572 1.0085e-05 4.85244e-05
0.00129419 1.04876e-05 5.23782e-05
0.00140043 1.07862e-05 5.71375e-05
0.00150399 1.09905e-05 6.26559e-05
0.00160451 1.11147e-05 6.87277e-05
0.00170177 1.11763e-05 7.5084e-05
0.00179578 1.1195e-05 8.13976e-05
0.00188678 1.11909e-05 8.74752e-05
0.00197583 1.11818e-05 9.27581e-05
0.00206 1.11782e-05 9.50609e-05
0 0 0
8.36393e-05 -1.25375e-05 3.24569e-05
0.000187634 -2.03793e-05 5.04139e-05
0.0002957 -2.23438e-05 5.38874e-05
0.000405153 -2.08306e-05 5.27018e-05
0.00051575 -1.84318e-05 5.03063e-05
0.000627309 -1.6171e-05 4.82855e-05
0.00073955 -1.44376e-05 4.71711e-05
0.000852089 -1.33522e-05 4.71174e-05
0.000964458 -1.29419e-05 4.81453e-05
0.00107614 -1.32025e-05 5.02348e-05
0.00118659 -1.41146e-05 5.33465e-05
0.00129528 -1.56434e-05 5.74182e-05
0.0014017 -1.77328e-05 6.23553e-05
0.00150541 -2.02999e-05 6.80191e-05
0.00160602 -2.32323e-05 7.42171e-05
0.0017033 -2.6389e-05 8.06999e-05
0.00179716 -2.96254e-05 8.71575e-05
0.00188782 -3.27351e-05 9.33877e-05
0.00197637 -3.5194e-05 9.87898e-05
0.00206 -3.61623e-05 0.000101137
0 0 0
8.4589e-05 -3.02581e-05 3.2381e-05
0.000192036 -4.61607e-05 5.05887e-05
0.000298335 -4.80777e-05 5.48018e-05
0.000405801 -4.54671e-05 5.43957e-05
0.000515298 -4.16586e-05 5.26924e-05
0.000626591 -3.82254e-05 5.12416e-05
0.000739113 -3.57588e-05 5.06072e-05
0.000852235 -3.44625e-05 5.0967e-05
0.00096533 -3.43922e-05 5.23554e-05
0.00107778 -3.55487e-05 5.47572e-05
0.001189 -3.79022e-05 5.8135e-05
0.0012984 -4.13927e-05 6.24293e-05
0.00140545 -4.59207e-05 6.75511e-05
0.00150966 -5.13384e-05 7.3372e-05
0.00161061 -5.74414e-05 7.97166e-05
0.001708 -6.39719e-05 8.63631e-05
0.00180162 -7.06091e-05 9.3032e-05
0.00189134 -7.70862e-05 9.94984e-05
0.00197822 -8.267e-05 0.000105065
0.00206 -8.50723e-05 0.000107461
0 0 0
9.98831e-05 -6.10581e-05 3.28325e-05
0.000199081 -7.27166e-05 5.15856e-05
0.000298994 -7.31486e-05 5.6504e-05
0.000403624 -6.89254e-05 5.68335e-05
0.000512341 -6.37984e-05 5.57536e-05
0.000624024 -5.93284e-05 5.48695e-05
0.000737537 -5.62143e-05 5.47449e-05
0.000851938 -5.47432e-05 5.55566e-05
0.00096643 -5.5026e-05 5.73327e-05
0.00108031 -5.70906e-05 6.00525e-05
0.00119291 -6.09125e-05 6.36746e-05
0.00130361 -6.64176e-05 6.81376e-05
0.00141181 -7.3475e-05 7.33527e-05
0.00151696 -8.18854e-05 7.91943e-05
0.00161858 -9.13712e-05 8.54902e-05
0.00171628 -0.000101573 9.20209e-05
0.00180977 -0.000112064 9.84984e-05
0.00189876 -0.000122214 0.000104681
0.0019832 -0.000132224 0.000109948
0.00206 -0.000137334 0.000112211
0 0 0
9.99792e-05 6.3489e-05 1.20519e-05
0.000196036 7.69233e-05 1.93398e-05
0.000297728 7.94051e-05 2.08267e-05
0.000404162 7.66571e-05 1.88313e-05
0.000513898 7.30206e-05 1.59481e-05
0.000625775 7.0018e-05 1.3214e-05
0.000738921 6.8308e-05 1.1039e-05
0.000852631 6.81183e-05 9.54994e-06
0.000966272 6.95194e-05 8.77746e-06
0.00107924 7.25149e-05 8.71956e-06
0.00119093 7.70673e-05 9.3577e-06
0.00130077 8.3097e-05 1.0655e-05
0.0014082 9.04718e-05 1.25498e-05
0.0015127 9.89934e-05 1.49493e-05
0.00161384 0.000108382 1.77244e-05
0.00171128 0.000118257 2.07055e-05
0.00180486 0.000128131 2.37047e-05
0.00189471 0.000137368 2.65028e-05
0.00198098 0.000146531 2.86743e-05
0.00206 0.000151317 2.95263e-05
0 0 0
8.36393e-05 3.24569e-05 1.25375e-05
0.000187634 5.04139e-05 2.03793e-05
0.0002957 5.38874e-05 2.23438e-05
0.000405153 5.27018e-05 2.08306e-05
0.00051575 5.03063e-05 1.84318e-05
0.000627309 4.82855e-05 1.6171e-05
0.00073955 4.71711e-05 1.44376e-05
0.000852089 4.71174e-05 1.33522e-05
0.000964458 4.81453e-05 1.29419e-05
0.00107614 5.02348e-05 1.32025e-05
0.00118659 5.33465e-05 1.41146e-05
0.00129528 5.74182e-05 1.56434e-05
0.0014017 6.23553e-05 1.77328e-05
0.00150541 6.80191e-05 2.02999e-05
0.00160602 7.42171e-05 2.32323e-05
0.0017033 8.06999e-05 2.6389e-05
0.00179716 8.71575e-05 2.96254e-05
0.00188782 9.33877e-05 3.27351e-05
0.00197637 9.87898e-05 3.5194e-05
0.00206 0.000101137 3.61623e-05
0 0 0
8.25741e-05 1.45388e-05 1.3436e-05
0.000182855 2.41165e-05 2.18924e-05
0.000292641 2.77095e-05 2.43669e-05
0.000404095 2.77183e-05 2.32857e-05
0.000515868 2.68007e-05 2.13257e-05
0.000627744 2.59701e-05 1.95141e-05
0.000739742 2.55847e-05 1.8222e-05
0.000851731 2.57306e-05 1.75479e-05
0.000963407 2.64098e-05 1.75039e-05
0.00107435 2.76024e-05 1.80771e-05
0.00118408 2.92814e-05 1.92443e-05
0.00129209 3.14119e-05 2.09698e-05
0.00139793 3.39445e-05 2.31992e-05
0.00150117 3.68099e-05 2.58532e-05
0.00160149 3.99141e-05 2.88239e-05
0.00169871 4.31395e-05 3.19765e-05
0.00179286 4.63735e-05 3.51791e-05
0.00188447 4.94532e-05 3.82499e-05
0.00197465 5.18924e-05 4.06886e-05
0.00206 5.28576e-05 4.16541e-05
0 0 0
8.21914e-05 5.62509e-07 1.41272e-05
0.000181994 1.12047e-06 2.32091e-05
0.000291475 1.67365e-06 2.62147e-05
0.000403533 2.21638e-06 2.56308e-05
0.000515759 2.73751e-06 2.41521e-05
0.00062782 3.22822e-06 2.28101e-05
0.000739789 3.68164e-06 2.19636e-05
0.000851622 4.09171e-06 2.16984e-05
0.000963081 4.45337e-06 2.20167e-05
0.00107378 4.76303e-06 2.28995e-05
0.00118327 5.0189e-06 2.43206e-05
0.00129106 5.2213e-06 2.6244e-05
0.0013967 5.37282e-06 2.86172e-05
0.00149979 5.4783e-06 3.13646e-05
0.00160001 5.54468e-06 3.43831e-05
0.00169722 5.58054e-06 3.75438e-05
0.00179151 5.59541e-06 4.07243e-05
0.00188348 5.59867e-06 4.37608e-05
0.00197413 5.5978e-06 4.61732e-05
0.00206 5.59716e-06 4.71298e-05
0 0 0
8.25741e-05 -1.3436e-05 1.45388e-05
0.000182855 -2.18924e-05 2.41165e-05
0.000292641 -2.43669e-05 2.77095e-05
0.000404095 -2.32857e-05 2.77183e-05
0.000515868 -2.13257e-05 2.68007e-05
0.000627744 -1.95141e-05 2.59701e-05
0.000739742 -1.8222e-05 2.55847e-05
0.000851731 -1.75479e-05 2.57306e-05
0.000963407 -1.75039e-05 2.64098e-05
0.00107435 -1.80771e-05 2.76024e-05
0.00118408 -1.92443e-05 2.92814e-05
0.00129209 -2.09698e-05 3.14119e-05
0.00139793 -2.31992e-05 3.39445e-05
0.00150117 -2.58532e-05 3.68099e-05
0.00160149 -2.88239e-05 3.99141e-05
0.00169871 -3.19765e-05 4.31395e-05
0.00179286 -3.51791e-05 4.63735e-05
0.00188447 -3.82499e-05 4.94532e-05
0.00197465 -4.06886e-05 5.18924e-05
0.00206 -4.16541e-05 5.28576e-05
0 0 0
8.34623e-05 -3.14319e-05 1.47796e-05
0.000187362 -4.82335e-05 2.48524e-05
0.000295408 -5.05519e-05 2.9061e-05
0.000404871 -4.82702e-05 2.97425e-05
0.000515482 -4.48331e-05 2.94447e-05
0.000627058 -4.18327e-05 2.91622e-05
0.00073932 -3.98127e-05 2.92568e-05
0.000851884 -3.89398e-05 2.98238e-05
0.00096428 -3.9245e-05 3.08692e-05
0.00107599 -4.07156e-05 3.23734e-05
0.00118647 -4.33157e-05 3.43092e-05
0.00129519 -4.69825e-05 3.66427e-05
0.00140164 -5.16159e-05 3.9328e-05
0.00150537 -5.70676e-05 4.23017e-05
0.00160601 -6.31309e-05 4.54797e-05
0.0017033 -6.95387e-05 4.87568e-05
0.00179717 -7.59611e-05 5.20279e-05
0.00188783 -8.21773e-05 5.51276e-05
0.00197638 -8.75736e-05 5.75674e-05
0.00206 -8.99189e-05 5.85282e-05
0 0 0
9.90744e-05 -6.26524e-05 1.53699e-05
0.000194896 -7.47773e-05 2.60579e-05
0.000296611 -7.60713e-05 3.096e-05
0.000403096 -7.22257e-05 3.22881e-05
0.000512888 -6.75496e-05 3.25873e-05
0.00062483 -6.35685e-05 3.2851e-05
0.000738056 -6.09537e-05 3.34463e-05
0.000851859 -5.99456e-05 3.44599e-05
0.000965603 -6.0625e-05 3.58886e-05
0.00107868 -6.30029e-05 3.77057e-05
0.00119049 -6.70452e-05 3.98797e-05
0.00130044 -7.26719e-05 4.23739e-05
0.00140797 -7.97455e-05 4.51417e-05
0.00151256 -8.80577e-05 4.81199e-05
0.00161378 -9.7315e-05 5.1223e-05
0.00171127 -0.000107118 5.43365e-05
0.00180488 -0.000116961 5.73361e-05
0.00189475 -0.000126187 6.00688e-05
0.001981 -0.000135347 6.21713e-05
0.00206 -0.000140133 6.29958e-05
0 0 0
9.91446e-05 6.33141e-05 -1.65476e-06
0.000194686 7.63597e-05 -3.35046e-06
0.000296117 7.81694e-05 -5.05243e-06
0.000403152 7.49162e-05 -6.70913e-06
0.000513331 7.07308e-05 -8.29414e-06
0.000625409 6.72382e-05 -9.78655e-06
0.000738557 6.50904e-05 -1.11656e-05
0.000852149 6.45101e-05 -1.24117e-05
0.000965614 6.55622e-05 -1.35082e-05
0.00107838 6.82476e-05 -1.44433e-05
0.00118988 7.25271e-05 -1.52104e-05
0.00129953 7.83176e-05 -1.58101e-05
0.0014068 8.54799e-05 -1.62498e-05
0.00151117 9.38041e-05 -1.65443e-05
0.00161221 0.000102992 -1.67153e-05
0.00170961 0.000112627 -1.679e-05
0.00180328 0.000122178 -1.67998e-05
0.00189347 0.000131021 -1.67768e-05
0.0019803 0.000139845 -1.67501e-05
0.00206 0.0001445 -1.67395e-05
0 0 0
8.31386e-05 3.22443e-05 -1.13746e-06
0.000186649 4.97047e-05 -2.24637e-06
0.000294453 5.25799e-05 -3.35773e-06
0.000404495 5.07728e-05 -4.45099e-06
0.000515536 4.77986e-05 -5.50007e-06
0.000627274 4.52585e-05 -6.48779e-06
0.000739489 4.36854e-05 -7.40039e-06
0.000851881 4.32255e-05 -8.22535e-06
0.000964043 4.3896e-05 -8.9522e-06
0.00107549 4.56757e-05 -9.57338e-06
0.00118572 4.85244e-05 -1.0085e-05
0.00129419 5.23782e-05 -1.04876e-05
0.00140043 5.71375e-05 -1.07862e-05
0.00150399 6.26559e-05 -1.09905e-05
0.00160451 6.87277e-05 -1.11147e-05
0.00170177 7.5084e-05 -1.11763e-05
0.00179578 8.13976e-05 -1.1195e-05
0.00188678 8.74752e-05 -1.11909e-05
0.00197583 9.27581e-05 -1.11818e-05
0.00206 9.50609e-05 -1.11782e-05
0 0 0
8.21914e-05 1.41272e-05 -5.62509e-07
0.000181994 2.32091e-05 -1.12047e-06
0.000291475 2.62147e-05 -1.67365e-06
0.000403533 2.56308e-05 -2.21638e-06
0.000515759 2.41521e-05 -2.73751e-06
0.00062782 2.28101e-05 -3.22822e-06
0.000739789 2.19636e-05 -3.68164e-06
0.000851622 2.16984e-05 -4.09171e-06
0.000963081 2.20167e-05 -4.45337e-06
0.00107378 2.28995e-05 -4.76303e-06
0.00118327 2.43206e-05 -5.0189e-06
0.00129106 2.6244e-05 -5.2213e-06
0.0013967 2.86172e-05 -5.37282e-06
0.00149979 3.13646e-05 -5.4783e-06
0.00160001 3.43831e-05 -5.54468e-06
0.00169722 3.75438e-05 -5.58054e-06
0.00179151 4.07243e-05 -5.59541e-06
0.00188348 4.37608e-05 -5.59867e-06
0.00197413 4.61732e-05 -5.5978e-06
0.00206 4.71298e-05 -5.59716e-06
0 0 0
8.18081e-05 5.56714e-20 2.94554e-20
0.000181123 6.53296e-20 1.18148e-19
0.000290292 2.55929e-19 1.39561e-19
0.00040295 2.40241e-19 2.50394e-19
0.000515637 9.09221e-21 3.27961e-19
0.000627891 -3.61212e-20 4.2798e-19
0.000739834 -1.64996e-19 5.49824e-19
0.000851514 -3.37185e-19 7.21887e-19
0.000962754 -4.21785e-19 8.97186e-19
0.00107321 -6.06174e-19 9.82412e-19
0.00118246 -7.23269e-19 1.08605e-18
0.00129003 -1.05463e-18 1.29339e-18
0.00139548 -1.39711e-18 1.73073e-18
0.00149841 -1.56617e-18 1.89188e-18
0.00159854 -1.80599e-18 2.12268e-18
0.00169573 -2.06215e-18 2.42003e-18
0.00179017 -2.24247e-18 2.63639e-18
0.00188249 -2.34032e-18 2.55753e-18
0.00197363 -2.47673e-18 2.6813e-18
0.00206 -2.49029e-18 2.60533e-18
0 0 0
8.21914e-05 -1.41272e-05 5.62509e-07
0.000181994 -2.32091e-05 1.12047e-06
0.000291475 -2.62147e-05 1.67365e-06
0.000403533 -2.56308e-05 2.21638e-06
0.000515759 -2.41521e-05 2.73751e-06
0.00062782 -2.28101e-05 3.22822e-06
0.000739789 -2.19636e-05 3.68164e-06
0.000851622 -2.16984e-05 4.09171e-06
0.000963081 -2.20167e-05 4.45337e-06
0.00107378 -2.28995e-05 4.76303e-06
0.00118327 -2.43206e-05 5.0189e-06
0.00129106 -2.6244e-05 5.2213e-06
0.0013967 -2.86172e-05 5.37282e-06
0.00149979 -3.13646e-05 5.4783e-06
0.00160001 -3.43831e-05 5.54468e-06
0.00169722 -3.75438e-05 5.58054e-06
0.00179151 -4.07243e-05 5.59541e-06
0.00188348 -4.37608e-05 5.59867e-06
0.00197413 -4.61732e-05 5.5978e-06
0.00206 -4.71298e-05 5.59716e-06
0 0 0
8.31386e-05 -3.22443e-05 1.13746e-06
0.000186649 -4.97047e-05 2.24637e-06
0.000294453 -5.25799e-05 3.35773e-06
0.000404495 -5.07728e-05 4.45099e-06
0.000515536 -4.77986e-05 5.50007e-06
0.000627274 -4.52585e-05 6.48779e-06
0.000739489 -4.36854e-05 7.40039e-06
0.000851881 -4.32255e-05 8.22535e-06
0.000964043 -4.3896e-05 8.9522e-06
0.00107549 -4.56757e-05 9.57338e-06
0.00118572 -4.85244e-05 1.0085e-05
0.00129419 -5.23782e-05 1.04876e-05
0.00140043 -5.71375e-05 1.07862e-05
0.00150399 -6.26559e-05 1.09905e-05
0.00160451 -6.87277e-05 1.11147e-05
0.00170177 -7.5084e-05 1.11763e-05
0.00179578 -8.13976e-05 1.1195e-05
0.00188678 -8.74752e-05 1.11909e-05
0.00197583 -9.27581e-05 1.11818e-05
0.00206 -9.50609e-05 1.11782e-05
0 0 0
9.91446e-05 -6.33141e-05 1.65476e-06
0.000194686 -7.63597e-05 3.35046e-06
0.000296117 -7.81694e-05 5.05243e-06
0.000403152 -7.49162e-05 6.70913e-06
0.000513331 -7.07308e-05 8.29414e-06
0.000625409 -6.72382e-05 9.78655e-06
0.000738557 -6.50904e-05 1.11656e-05
0.000852149 -6.45101e-05 1.24117e-05
0.000965614 -6.55622e-05 1.35082e-05
0.00107838 -6.82476e-05 1.44433e-05
0.00118988 -7.25271e-05 1.52104e-05
0.00129953 -7.83176e-05 1.58101e-05
0.0014068 -8.54799e-05 1.62498e-05
0.00151117 -9.38041e-05 1.65443e-05