<?xml version="1.0"?>
<VTKFile type="UnstructuredGrid" version="0.1" byte_order="LittleEndian">
<UnstructuredGrid>
<Piece NumberOfPoints="8" NumberOfCells="1">
<Points>
<DataArray type="Float32" NumberOfComponents="3" format="ascii">
0 0 0
0.1 0 0
0 0.03 0
0.1 0.03 0
0 0 0.03
0.1 0 0.03
0 0.03 0.03
0.1 0.03 0.03
</DataArray>
</Points>
<Cells>
<DataArray type="Int32" Name="connectivity" format="ascii">
0 1 3 2 4 5 7 6 
</DataArray>
<DataArray type="Int32" Name="offsets" format="ascii">
8 
</DataArray>
<DataArray type="UInt8" Name="types" format="ascii">
12 
</DataArray>
</Cells>
<PointData Vectors="Displacement">
<DataArray type="Float32" Name="Displacement" NumberOfComponents="3" format="ascii">
0.04505 0 0
0.04505 -5.18834e-18 1.32198e-18
0.04505 0 0
0.04505 -6.28555e-18 3.63877e-18
0.04505 0 0
0.04505 -8.62436e-18 4.59173e-19
0.04505 0 0
0.04505 -8.31828e-18 4.02104e-18
</DataArray>
</PointData>
</Piece>
</UnstructuredGrid>
</VTKFile>
