<?xml version="1.0"?>
<VTKFile type="UnstructuredGrid" version="0.1" byte_order="LittleEndian">
<UnstructuredGrid>
<Piece NumberOfPoints="6929" NumberOfCells="5760">
<Points>
<DataArray type="Float32" NumberOfComponents="3" format="ascii">
0 0 0
0.0025 0 0
0.005 0 0
0.0075 0 0
0.01 0 0
0.0125 0 0
0.015 0 0
0.0175 0 0
0.02 0 0
0.0225 0 0
0.025 0 0
0.0275 0 0
0.03 0 0
0.0325 0 0
0.035 0 0
0.0375 0 0
0.04 0 0
0.0425 0 0
0.045 0 0
0.0475 0 0
0.05 0 0
0.0525 0 0
0.055 0 0
0.0575 0 0
0.06 0 0
0.0625 0 0
0.065 0 0
0.0675 0 0
0.07 0 0
0.0725 0 0
0.075 0 0
0.0775 0 0
0.08 0 0
0.0825 0 0
0.085 0 0
0.0875 0 0
0.09 0 0
0.0925 0 0
0.095 0 0
0.0975 0 0
0.1 0 0
0 0.0025 0
0.0025 0.0025 0
0.005 0.0025 0
0.0075 0.0025 0
0.01 0.0025 0
0.0125 0.0025 0
0.015 0.0025 0
0.0175 0.0025 0
0.02 0.0025 0
0.0225 0.0025 0
0.025 0.0025 0
0.0275 0.0025 0
0.03 0.0025 0
0.0325 0.0025 0
0.035 0.0025 0
0.0375 0.0025 0
0.04 0.0025 0
0.0425 0.0025 0
0.045 0.0025 0
0.0475 0.0025 0
0.05 0.0025 0
0.0525 0.0025 0
0.055 0.0025 0
0.0575 0.0025 0
0.06 0.0025 0
0.0625 0.0025 0
0.065 0.0025 0
0.0675 0.0025 0
0.07 0.0025 0
0.0725 0.0025 0
0.075 0.0025 0
0.0775 0.0025 0
0.08 0.0025 0
0.0825 0.0025 0
0.085 0.0025 0
0.0875 0.0025 0
0.09 0.0025 0
0.0925 0.0025 0
0.095 0.0025 0
0.0975 0.0025 0
0.1 0.0025 0
0 0.005 0
0.0025 0.005 0
0.005 0.005 0
0.0075 0.005 0
0.01 0.005 0
0.0125 0.005 0
0.015 0.005 0
0.0175 0.005 0
0.02 0.005 0
0.0225 0.005 0
0.025 0.005 0
0.0275 0.005 0
0.03 0.005 0
0.0325 0.005 0
0.035 0.005 0
0.0375 0.005 0
0.04 0.005 0
0.0425 0.005 0
0.045 0.005 0
0.0475 0.005 0
0.05 0.005 0
0.0525 0.005 0
0.055 0.005 0
0.0575 0.005 0
0.06 0.005 0
0.0625 0.005 0
0.065 0.005 0
0.0675 0.005 0
0.07 0.005 0
0.0725 0.005 0
0.075 0.005 0
0.0775 0.005 0
0.08 0.005 0
0.0825 0.005 0
0.085 0.005 0
0.0875 0.005 0
0.09 0.005 0
0.0925 0.005 0
0.095 0.005 0
0.0975 0.005 0
0.1 0.005 0
0 0.0075 0
0.0025 0.0075 0
0.005 0.0075 0
0.0075 0.0075 0
0.01 0.0075 0
0.0125 0.0075 0
0.015 0.0075 0
0.0175 0.0075 0
0.02 0.0075 0
0.0225 0.0075 0
0.025 0.0075 0
0.0275 0.0075 0
0.03 0.0075 0
0.0325 0.0075 0
0.035 0.0075 0
0.0375 0.0075 0
0.04 0.0075 0
0.0425 0.0075 0
0.045 0.0075 0
0.0475 0.0075 0
0.05 0.0075 0
0.0525 0.0075 0
0.055 0.0075 0
0.0575 0.0075 0
0.06 0.0075 0
0.0625 0.0075 0
0.065 0.0075 0
0.0675 0.0075 0
0.07 0.0075 0
0.0725 0.0075 0
0.075 0.0075 0
0.0775 0.0075 0
0.08 0.0075 0
0.0825 0.0075 0
0.085 0.0075 0
0.0875 0.0075 0
0.09 0.0075 0
0.0925 0.0075 0
0.095 0.0075 0
0.0975 0.0075 0
0.1 0.0075 0
0 0.01 0
0.0025 0.01 0
0.005 0.01 0
0.0075 0.01 0
0.01 0.01 0
0.0125 0.01 0
0.015 0.01 0
0.0175 0.01 0
0.02 0.01 0
0.0225 0.01 0
0.025 0.01 0
0.0275 0.01 0
0.03 0.01 0
0.0325 0.01 0
0.035 0.01 0
0.0375 0.01 0
0.04 0.01 0
0.0425 0.01 0
0.045 0.01 0
0.0475 0.01 0
0.05 0.01 0
0.0525 0.01 0
0.055 0.01 0
0.0575 0.01 0
0.06 0.01 0
0.0625 0.01 0
0.065 0.01 0
0.0675 0.01 0
0.07 0.01 0
0.0725 0.01 0
0.075 0.01 0
0.0775 0.01 0
0.08 0.01 0
0.0825 0.01 0
0.085 0.01 0
0.0875 0.01 0
0.09 0.01 0
0.0925 0.01 0
0.095 0.01 0
0.0975 0.01 0
0.1 0.01 0
0 0.0125 0
0.0025 0.0125 0
0.005 0.0125 0
0.0075 0.0125 0
0.01 0.0125 0
0.0125 0.0125 0
0.015 0.0125 0
0.0175 0.0125 0
0.02 0.0125 0
0.0225 0.0125 0
0.025 0.0125 0
0.0275 0.0125 0
0.03 0.0125 0
0.0325 0.0125 0
0.035 0.0125 0
0.0375 0.0125 0
0.04 0.0125 0
0.0425 0.0125 0
0.045 0.0125 0
0.0475 0.0125 0
0.05 0.0125 0
0.0525 0.0125 0
0.055 0.0125 0
0.0575 0.0125 0
0.06 0.0125 0
0.0625 0.0125 0
0.065 0.0125 0
0.0675 0.0125 0
0.07 0.0125 0
0.0725 0.0125 0
0.075 0.0125 0
0.0775 0.0125 0
0.08 0.0125 0
0.0825 0.0125 0
0.085 0.0125 0
0.0875 0.0125 0
0.09 0.0125 0
0.0925 0.0125 0
0.095 0.0125 0
0.0975 0.0125 0
0.1 0.0125 0
0 0.015 0
0.0025 0.015 0
0.005 0.015 0
0.0075 0.015 0
0.01 0.015 0
0.0125 0.015 0
0.015 0.015 0
0.0175 0.015 0
0.02 0.015 0
0.0225 0.015 0
0.025 0.015 0
0.0275 0.015 0
0.03 0.015 0
0.0325 0.015 0
0.035 0.015 0
0.0375 0.015 0
0.04 0.015 0
0.0425 0.015 0
0.045 0.015 0
0.0475 0.015 0
0.05 0.015 0
0.0525 0.015 0
0.055 0.015 0
0.0575 0.015 0
0.06 0.015 0
0.0625 0.015 0
0.065 0.015 0
0.0675 0.015 0
0.07 0.015 0
0.0725 0.015 0
0.075 0.015 0
0.0775 0.015 0
0.08 0.015 0
0.0825 0.015 0
0.085 0.015 0
0.0875 0.015 0
0.09 0.015 0
0.0925 0.015 0
0.095 0.015 0
0.0975 0.015 0
0.1 0.015 0
0 0.0175 0
0.0025 0.0175 0
0.005 0.0175 0
0.0075 0.0175 0
0.01 0.0175 0
0.0125 0.0175 0
0.015 0.0175 0
0.0175 0.0175 0
0.02 0.0175 0
0.0225 0.0175 0
0.025 0.0175 0
0.0275 0.0175 0
0.03 0.0175 0
0.0325 0.0175 0
0.035 0.0175 0
0.0375 0.0175 0
0.04 0.0175 0
0.0425 0.0175 0
0.045 0.0175 0
0.0475 0.0175 0
0.05 0.0175 0
0.0525 0.0175 0
0.055 0.0175 0
0.0575 0.0175 0
0.06 0.0175 0
0.0625 0.0175 0
0.065 0.0175 0
0.0675 0.0175 0
0.07 0.0175 0
0.0725 0.0175 0
0.075 0.0175 0
0.0775 0.0175 0
0.08 0.0175 0
0.0825 0.0175 0
0.085 0.0175 0
0.0875 0.0175 0
0.09 0.0175 0
0.0925 0.0175 0
0.095 0.0175 0
0.0975 0.0175 0
0.1 0.0175 0
0 0.02 0
0.0025 0.02 0
0.005 0.02 0
0.0075 0.02 0
0.01 0.02 0
0.0125 0.02 0
0.015 0.02 0
0.0175 0.02 0
0.02 0.02 0
0.0225 0.02 0
0.025 0.02 0
0.0275 0.02 0
0.03 0.02 0
0.0325 0.02 0
0.035 0.02 0
0.0375 0.02 0
0.04 0.02 0
0.0425 0.02 0
0.045 0.02 0
0.0475 0.02 0
0.05 0.02 0
0.0525 0.02 0
0.055 0.02 0
0.0575 0.02 0
0.06 0.02 0
0.0625 0.02 0
0.065 0.02 0
0.0675 0.02 0
0.07 0.02 0
0.0725 0.02 0
0.075 0.02 0
0.0775 0.02 0
0.08 0.02 0
0.0825 0.02 0
0.085 0.02 0
0.0875 0.02 0
0.09 0.02 0
0.0925 0.02 0
0.095 0.02 0
0.0975 0.02 0
0.1 0.02 0
0 0.0225 0
0.0025 0.0225 0
0.005 0.0225 0
0.0075 0.0225 0
0.01 0.0225 0
0.0125 0.0225 0
0.015 0.0225 0
0.0175 0.0225 0
0.02 0.0225 0
0.0225 0.0225 0
0.025 0.0225 0
0.0275 0.0225 0
0.03 0.0225 0
0.0325 0.0225 0
0.035 0.0225 0
0.0375 0.0225 0
0.04 0.0225 0
0.0425 0.0225 0
0.045 0.0225 0
0.0475 0.0225 0
0.05 0.0225 0
0.0525 0.0225 0
0.055 0.0225 0
0.0575 0.0225 0
0.06 0.0225 0
0.0625 0.0225 0
0.065 0.0225 0
0.0675 0.0225 0
0.07 0.0225 0
0.0725 0.0225 0
0.075 0.0225 0
0.0775 0.0225 0
0.08 0.0225 0
0.0825 0.0225 0
0.085 0.0225 0
0.0875 0.0225 0
0.09 0.0225 0
0.0925 0.0225 0
0.095 0.0225 0
0.0975 0.0225 0
0.1 0.0225 0
0 0.025 0
0.0025 0.025 0
0.005 0.025 0
0.0075 0.025 0
0.01 0.025 0
0.0125 0.025 0
0.015 0.025 0
0.0175 0.025 0
0.02 0.025 0
0.0225 0.025 0
0.025 0.025 0
0.0275 0.025 0
0.03 0.025 0
0.0325 0.025 0
0.035 0.025 0
0.0375 0.025 0
0.04 0.025 0
0.0425 0.025 0
0.045 0.025 0
0.0475 0.025 0
0.05 0.025 0
0.0525 0.025 0
0.055 0.025 0
0.0575 0.025 0
0.06 0.025 0
0.0625 0.025 0
0.065 0.025 0
0.0675 0.025 0
0.07 0.025 0
0.0725 0.025 0
0.075 0.025 0
0.0775 0.025 0
0.08 0.025 0
0.0825 0.025 0
0.085 0.025 0
0.0875 0.025 0
0.09 0.025 0
0.0925 0.025 0
0.095 0.025 0
0.0975 0.025 0
0.1 0.025 0
0 0.0275 0
0.0025 0.0275 0
0.005 0.0275 0
0.0075 0.0275 0
0.01 0.0275 0
0.0125 0.0275 0
0.015 0.0275 0
0.0175 0.0275 0
0.02 0.0275 0
0.0225 0.0275 0
0.025 0.0275 0
0.0275 0.0275 0
0.03 0.0275 0
0.0325 0.0275 0
0.035 0.0275 0
0.0375 0.0275 0
0.04 0.0275 0
0.0425 0.0275 0
0.045 0.0275 0
0.0475 0.0275 0
0.05 0.0275 0
0.0525 0.0275 0
0.055 0.0275 0
0.0575 0.0275 0
0.06 0.0275 0
0.0625 0.0275 0
0.065 0.0275 0
0.0675 0.0275 0
0.07 0.0275 0
0.0725 0.0275 0
0.075 0.0275 0
0.0775 0.0275 0
0.08 0.0275 0
0.0825 0.0275 0
0.085 0.0275 0
0.0875 0.0275 0
0.09 0.0275 0
0.0925 0.0275 0
0.095 0.0275 0
0.0975 0.0275 0
0.1 0.0275 0
0 0.03 0
0.0025 0.03 0
0.005 0.03 0
0.0075 0.03 0
0.01 0.03 0
0.0125 0.03 0
0.015 0.03 0
0.0175 0.03 0
0.02 0.03 0
0.0225 0.03 0
0.025 0.03 0
0.0275 0.03 0
0.03 0.03 0
0.0325 0.03 0
0.035 0.03 0
0.0375 0.03 0
0.04 0.03 0
0.0425 0.03 0
0.045 0.03 0
0.0475 0.03 0
0.05 0.03 0
0.0525 0.03 0
0.055 0.03 0
0.0575 0.03 0
0.06 0.03 0
0.0625 0.03 0
0.065 0.03 0
0.0675 0.03 0
0.07 0.03 0
0.0725 0.03 0
0.075 0.03 0
0.0775 0.03 0
0.08 0.03 0
0.0825 0.03 0
0.085 0.03 0
0.0875 0.03 0
0.09 0.03 0
0.0925 0.03 0
0.095 0.03 0
0.0975 0.03 0
0.1 0.03 0
0 0 0.0025
0.0025 0 0.0025
0.005 0 0.0025
0.0075 0 0.0025
0.01 0 0.0025
0.0125 0 0.0025
0.015 0 0.0025
0.0175 0 0.0025
0.02 0 0.0025
0.0225 0 0.0025
0.025 0 0.0025
0.0275 0 0.0025
0.03 0 0.0025
0.0325 0 0.0025
0.035 0 0.0025
0.0375 0 0.0025
0.04 0 0.0025
0.0425 0 0.0025
0.045 0 0.0025
0.0475 0 0.0025
0.05 0 0.0025
0.0525 0 0.0025
0.055 0 0.0025
0.0575 0 0.0025
0.06 0 0.0025
0.0625 0 0.0025
0.065 0 0.0025
0.0675 0 0.0025
0.07 0 0.0025
0.0725 0 0.0025
0.075 0 0.0025
0.0775 0 0.0025
0.08 0 0.0025
0.0825 0 0.0025
0.085 0 0.0025
0.0875 0 0.0025
0.09 0 0.0025
0.0925 0 0.0025
0.095 0 0.0025
0.0975 0 0.0025
0.1 0 0.0025
0 0.0025 0.0025
0.0025 0.0025 0.0025
0.005 0.0025 0.0025
0.0075 0.0025 0.0025
0.01 0.0025 0.0025
0.0125 0.0025 0.0025
0.015 0.0025 0.0025
0.0175 0.0025 0.0025
0.02 0.0025 0.0025
0.0225 0.0025 0.0025
0.025 0.0025 0.0025
0.0275 0.0025 0.0025
0.03 0.0025 0.0025
0.0325 0.0025 0.0025
0.035 0.0025 0.0025
0.0375 0.0025 0.0025
0.04 0.0025 0.0025
0.0425 0.0025 0.0025
0.045 0.0025 0.0025
0.0475 0.0025 0.0025
0.05 0.0025 0.0025
0.0525 0.0025 0.0025
0.055 0.0025 0.0025
0.0575 0.0025 0.0025
0.06 0.0025 0.0025
0.0625 0.0025 0.0025
0.065 0.0025 0.0025
0.0675 0.0025 0.0025
0.07 0.0025 0.0025
0.0725 0.0025 0.0025
0.075 0.0025 0.0025
0.0775 0.0025 0.0025
0.08 0.0025 0.0025
0.0825 0.0025 0.0025
0.085 0.0025 0.0025
0.0875 0.0025 0.0025
0.09 0.0025 0.0025
0.0925 0.0025 0.0025
0.095 0.0025 0.0025
0.0975 0.0025 0.0025
0.1 0.0025 0.0025
0 0.005 0.0025
0.0025 0.005 0.0025
0.005 0.005 0.0025
0.0075 0.005 0.0025
0.01 0.005 0.0025
0.0125 0.005 0.0025
0.015 0.005 0.0025
0.0175 0.005 0.0025
0.02 0.005 0.0025
0.0225 0.005 0.0025
0.025 0.005 0.0025
0.0275 0.005 0.0025
0.03 0.005 0.0025
0.0325 0.005 0.0025
0.035 0.005 0.0025
0.0375 0.005 0.0025
0.04 0.005 0.0025
0.0425 0.005 0.0025
0.045 0.005 0.0025
0.0475 0.005 0.0025
0.05 0.005 0.0025
0.0525 0.005 0.0025
0.055 0.005 0.0025
0.0575 0.005 0.0025
0.06 0.005 0.0025
0.0625 0.005 0.0025
0.065 0.005 0.0025
0.0675 0.005 0.0025
0.07 0.005 0.0025
0.0725 0.005 0.0025
0.075 0.005 0.0025
0.0775 0.005 0.0025
0.08 0.005 0.0025
0.0825 0.005 0.0025
0.085 0.005 0.0025
0.0875 0.005 0.0025
0.09 0.005 0.0025
0.0925 0.005 0.0025
0.095 0.005 0.0025
0.0975 0.005 0.0025
0.1 0.005 0.0025
0 0.0075 0.0025
0.0025 0.0075 0.0025
[...]
<PointData Vectors="Displacement">
<DataArray type="Float32" Name="Displacement" NumberOfComponents="3" format="ascii">
0 0 0
2.74253e-05 2.35669e-05 2.35669e-05
4.74528e-05 3.13697e-05 3.13697e-05
6.40132e-05 3.70986e-05 3.70986e-05
8.04219e-05 4.06112e-05 4.06112e-05
9.72329e-05 4.28264e-05 4.28264e-05
0.000114659 4.41775e-05 4.41775e-05
0.000132694 4.49714e-05 4.49714e-05
0.000151264 4.54106e-05 4.54106e-05
0.000170271 4.56312e-05 4.56312e-05
0.000189618 4.57228e-05 4.57228e-05
0.000209218 4.57426e-05 4.57426e-05
0.000229002 4.57265e-05 4.57265e-05
0.000248913 4.56954e-05 4.56954e-05
0.00026891 4.56611e-05 4.56611e-05
0.000288963 4.56294e-05 4.56294e-05
0.000309051 4.56028e-05 4.56028e-05
0.000329161 4.55817e-05 4.55817e-05
0.000349282 4.55657e-05 4.55657e-05
0.00036941 4.55539e-05 4.55539e-05
0.00038954 4.55451e-05 4.55451e-05
0.000409672 4.55386e-05 4.55386e-05
0.000429804 4.55334e-05 4.55334e-05
0.000449937 4.55288e-05 4.55288e-05
0.000470071 4.55245e-05 4.55245e-05
0.000490208 4.55201e-05 4.55201e-05
0.000510351 4.55156e-05 4.55156e-05
0.000530502 4.55116e-05 4.55116e-05
0.000550668 4.5509e-05 4.5509e-05
0.000570853 4.55101e-05 4.55101e-05
0.000591066 4.55186e-05 4.55186e-05
0.000611316 4.55407e-05 4.55407e-05
0.000631617 4.55859e-05 4.55859e-05
0.000651978 4.56688e-05 4.56688e-05
0.000672414 4.58114e-05 4.58114e-05
0.000692932 4.60471e-05 4.60471e-05
0.000713532 4.64273e-05 4.64273e-05
0.0007342 4.70543e-05 4.70543e-05
0.000754746 4.80342e-05 4.80342e-05
0.000774856 5.05292e-05 5.05292e-05
0.0008 5.22075e-05 5.22075e-05
0 0 0
2.10443e-05 1.44675e-05 2.30905e-05
4.1647e-05 2.4788e-05 3.21687e-05
5.98137e-05 3.06125e-05 3.76079e-05
7.74971e-05 3.41441e-05 4.09708e-05
9.52618e-05 3.62081e-05 4.30632e-05
0.000113363 3.73739e-05 4.43318e-05
0.000131866 3.7986e-05 4.50696e-05
0.000150753 3.82675e-05 4.54713e-05
0.00016997 3.83603e-05 4.56672e-05
0.000189452 3.83534e-05 4.57429e-05
0.000209135 3.83004e-05 4.57529e-05
0.000228968 3.82323e-05 4.57309e-05
0.000248906 3.81652e-05 4.56965e-05
0.000268916 3.81069e-05 4.56605e-05
0.000288975 3.80598e-05 4.56282e-05
0.000309065 3.80236e-05 4.56014e-05
0.000329173 3.79969e-05 4.55804e-05
0.000349293 3.79777e-05 4.55646e-05
0.000369418 3.79643e-05 4.5553e-05
0.000389547 3.79548e-05 4.55445e-05
0.000409678 3.7948e-05 4.55382e-05
0.000429809 3.79426e-05 4.55332e-05
0.000449941 3.79377e-05 4.55288e-05
0.000470074 3.79326e-05 4.55245e-05
0.00049021 3.79267e-05 4.55201e-05
0.000510351 3.79199e-05 4.55155e-05
0.0005305 3.7912e-05 4.55111e-05
0.00055066 3.79038e-05 4.55079e-05
0.000570836 3.78969e-05 4.5508e-05
0.000591034 3.78945e-05 4.55148e-05
0.000611262 3.79022e-05 4.55342e-05
0.000631528 3.79295e-05 4.55752e-05
0.000651838 3.79912e-05 4.56518e-05
0.000672198 3.81108e-05 4.57845e-05
0.000692604 3.83248e-05 4.60044e-05
0.00071304 3.8694e-05 4.63587e-05
0.000733463 3.93181e-05 4.69378e-05
0.000753727 4.04449e-05 4.79188e-05
0.000774023 4.2216e-05 5.07188e-05
0.0008 4.30779e-05 5.2648e-05
0 0 0
2.01721e-05 9.91518e-06 2.38304e-05
3.87644e-05 1.81778e-05 3.28013e-05
5.68103e-05 2.3835e-05 3.8462e-05
7.49141e-05 2.7242e-05 4.16885e-05
9.32273e-05 2.9212e-05 4.36154e-05
0.000111841 3.02675e-05 4.47304e-05
0.000130771 3.07715e-05 4.53459e-05
0.00014999 3.09568e-05 4.56561e-05
0.000169455 3.09705e-05 4.57864e-05
0.000189115 3.0902e-05 4.58168e-05
0.000208923 3.08033e-05 4.57965e-05
0.00022884 3.07025e-05 4.5755e-05
0.000248833 3.06129e-05 4.57085e-05
0.000268878 3.05395e-05 4.56654e-05
0.000288958 3.04827e-05 4.56291e-05
0.000309059 3.04405e-05 4.56004e-05
0.000329174 3.04103e-05 4.55787e-05
0.000349297 3.03892e-05 4.55628e-05
0.000369423 3.03748e-05 4.55514e-05
0.000389552 3.0365e-05 4.55432e-05
0.000409682 3.0358e-05 4.55373e-05
0.000429812 3.03524e-05 4.55325e-05
0.000449942 3.03473e-05 4.55283e-05
0.000470074 3.03418e-05 4.5524e-05
0.000490207 3.0335e-05 4.55194e-05
0.000510344 3.03266e-05 4.55141e-05
0.000530487 3.03164e-05 4.55085e-05
0.000550637 3.03046e-05 4.55032e-05
0.000570799 3.02928e-05 4.54999e-05
0.000590978 3.02836e-05 4.55017e-05
0.000611179 3.02825e-05 4.55137e-05
0.000631407 3.02992e-05 4.55442e-05
0.000651669 3.03494e-05 4.56064e-05
0.000671967 3.04582e-05 4.57201e-05
0.000692302 3.06655e-05 4.59174e-05
0.000712671 3.10321e-05 4.62502e-05
0.000733075 3.16529e-05 4.68441e-05
0.000753516 3.26039e-05 4.78847e-05
0.000774047 3.36852e-05 5.09704e-05
0.0008 3.41031e-05 5.31133e-05
0 0 0
1.97633e-05 6.85085e-06 2.4232e-05
3.7628e-05 1.28241e-05 3.3582e-05
5.50273e-05 1.72987e-05 3.92555e-05
7.30311e-05 2.02326e-05 4.24505e-05
9.15265e-05 2.19598e-05 4.425e-05
0.000110437 2.28824e-05 4.52214e-05
0.000129677 2.33043e-05 4.57056e-05
0.000149175 2.34374e-05 4.59085e-05
0.00016887 2.34181e-05 4.59569e-05
0.000188709 2.33295e-05 4.59277e-05
0.000208651 2.32192e-05 4.58657e-05
0.000228663 2.31122e-05 4.57961e-05
0.000248723 2.30198e-05 4.57314e-05
0.000268813 2.29457e-05 4.56769e-05
0.000288921 2.2889e-05 4.56339e-05
0.000309041 2.28475e-05 4.56015e-05
0.000329167 2.28181e-05 4.55779e-05
0.000349295 2.27979e-05 4.55613e-05
0.000369425 2.27842e-05 4.55498e-05
0.000389555 2.27749e-05 4.55418e-05
0.000409684 2.27683e-05 4.55361e-05
0.000429814 2.27632e-05 4.55316e-05
0.000449943 2.27584e-05 4.55274e-05
0.000470072 2.27531e-05 4.5523e-05
0.000490202 2.27464e-05 4.55178e-05
0.000510333 2.2738e-05 4.55114e-05
0.000530468 2.27276e-05 4.55039e-05
0.000550608 2.27153e-05 4.54956e-05
0.000570755 2.27022e-05 4.54877e-05
0.000590914 2.2691e-05 4.54828e-05
0.000611089 2.26867e-05 4.54855e-05
0.000631286 2.26986e-05 4.55038e-05
0.000651511 2.27417e-05 4.55508e-05
0.000671775 2.28402e-05 4.56481e-05
0.00069209 2.30297e-05 4.58321e-05
0.000712472 2.33582e-05 4.61671e-05
0.000732966 2.38688e-05 4.67907e-05
0.000753551 2.45368e-05 4.79271e-05
0.000774138 2.51751e-05 5.11998e-05
0.0008 2.53957e-05 5.34297e-05
0 0 0
1.96399e-05 4.34778e-06 2.45106e-05
3.70801e-05 8.2149e-06 3.41106e-05
5.40644e-05 1.12476e-05 3.98977e-05
7.18303e-05 1.33402e-05 4.30679e-05
9.03163e-05 1.46243e-05 4.47918e-05
0.000109355 1.53206e-05 4.56586e-05
0.000128784 1.56381e-05 4.60381e-05
0.000148479 1.57329e-05 4.61496e-05
0.000168351 1.57099e-05 4.61247e-05
0.000188337 1.5634e-05 4.604e-05
0.000208393 1.55426e-05 4.5938e-05
0.00022849 1.54551e-05 4.58406e-05
0.000248611 1.53802e-05 4.57574e-05
0.000268743 1.53203e-05 4.56911e-05
0.00028888 1.52749e-05 4.56408e-05
0.000309018 1.52417e-05 4.56041e-05
0.000329155 1.52183e-05 4.55783e-05
0.000349291 1.52022e-05 4.55605e-05
0.000369424 1.51913e-05 4.55486e-05
0.000389555 1.5184e-05 4.55406e-05
0.000409685 1.51789e-05 4.5535e-05
0.000429814 1.51749e-05 4.55306e-05
0.000449942 1.51711e-05 4.55265e-05
0.000470069 1.51669e-05 4.55218e-05
0.000490195 1.51616e-05 4.55159e-05
0.000510322 1.51548e-05 4.55084e-05
0.00053045 1.51464e-05 4.54989e-05
0.00055058 1.51363e-05 4.54875e-05
0.000570715 1.51256e-05 4.54752e-05
0.000590857 1.51162e-05 4.54641e-05
0.000611012 1.51122e-05 4.54586e-05
0.000631187 1.51211e-05 4.54666e-05
0.000651392 1.51549e-05 4.55023e-05
0.000671644 1.52321e-05 4.55895e-05
0.000691967 1.53783e-05 4.57697e-05
0.000712393 1.56201e-05 4.61146e-05
0.000732964 1.59674e-05 4.67752e-05
0.000753622 1.63792e-05 4.7989e-05
0.00077421 1.67369e-05 5.13607e-05
0.0008 1.68538e-05 5.36281e-05
0 0 0
1.95947e-05 2.11774e-06 2.46714e-05
3.68381e-05 4.01576e-06 3.44241e-05
5.35806e-05 5.53819e-06 4.02885e-05
7.11792e-05 6.61875e-06 4.34646e-05
8.96092e-05 7.2989e-06 4.51461e-05
0.000108688 7.67481e-06 4.5952e-05
0.000128211 7.84757e-06 4.62662e-05
0.000148019 7.8989e-06 4.63184e-05
0.000168 7.88542e-06 4.62443e-05
0.000188079 7.84281e-06 4.61215e-05
0.000208211 7.79172e-06 4.59914e-05
0.000228366 7.74293e-06 4.58742e-05
0.000248529 7.7012e-06 4.57775e-05
0.000268691 7.66792e-06 4.57024e-05
0.000288849 7.64266e-06 4.56466e-05
0.000309 7.62424e-06 4.56066e-05
0.000329146 7.61125e-06 4.55789e-05
0.000349286 7.60234e-06 4.55603e-05
0.000369422 7.59634e-06 4.5548e-05
0.000389555 7.59231e-06 4.55399e-05
0.000409686 7.58948e-06 4.55343e-05
0.000429814 7.58726e-06 4.55299e-05
0.000449941 7.58517e-06 4.55257e-05
0.000470066 7.58282e-06 4.55208e-05
0.000490191 7.57989e-06 4.55145e-05
0.000510314 7.57613e-06 4.5506e-05
0.000530437 7.57142e-06 4.54951e-05
0.000550561 7.56584e-06 4.54816e-05
0.000570687 7.55985e-06 4.54662e-05
0.000590818 7.55463e-06 4.54508e-05
0.000610961 7.55247e-06 4.54397e-05
0.000631124 7.5575e-06 4.54413e-05
0.00065132 7.57644e-06 4.54704e-05
0.000671572 7.61926e-06 4.55527e-05
0.000691909 7.69848e-06 4.5733e-05
0.000712368 7.825e-06 4.60882e-05
0.000732985 7.99825e-06 4.67757e-05
0.000753674 8.19304e-06 4.80342e-05
0.000774252 8.35429e-06 5.14539e-05
0.0008 8.40559e-06 5.37382e-05
0 0 0
1.95846e-05 -5.98675e-20 2.47243e-05
3.67679e-05 -5.70066e-20 3.45267e-05
5.34341e-05 -8.96072e-20 4.04196e-05
7.09731e-05 -8.78422e-20 4.35995e-05
8.93782e-05 -1.20044e-19 4.52689e-05
0.000108464 -1.76163e-19 4.60544e-05
0.000128015 -1.024e-19 4.63469e-05
0.000147859 -1.9046e-19 4.63786e-05
0.000167876 -1.34604e-19 4.62874e-05
0.000187988 -1.80451e-19 4.61511e-05
0.000208146 -1.36241e-19 4.6011e-05
0.000228321 -1.32583e-19 4.58866e-05
0.000248499 -1.80423e-19 4.57851e-05
0.000268672 -1.46855e-19 4.57067e-05
0.000288837 -2.00652e-19 4.56488e-05
0.000308993 -1.71186e-19 4.56076e-05
0.000329142 -2.22208e-19 4.55793e-05
0.000349284 -2.41214e-19 4.55603e-05
0.000369422 -2.59413e-19 4.55478e-05
0.000389555 -2.29268e-19 4.55397e-05
0.000409686 -2.83158e-19 4.55341e-05
0.000429814 -3.39773e-19 4.55297e-05
0.000449941 -3.30949e-19 4.55254e-05
0.000470065 -3.64684e-19 4.55204e-05
0.000490189 -4.1727e-19 4.55139e-05
0.000510311 -3.75513e-19 4.55052e-05
0.000530432 -3.50284e-19 4.54937e-05
0.000550553 -4.03336e-19 4.54794e-05
0.000570677 -3.49296e-19 4.54629e-05
0.000590805 -3.35299e-19 4.5446e-05
0.000610943 -2.18539e-19 4.5433e-05
0.000631102 -1.83279e-19 4.54325e-05
0.000651296 -1.65649e-19 4.54594e-05
0.000671549 -7.68567e-20 4.55403e-05
0.000691892 -3.19271e-20 4.57211e-05
0.000712363 1.08334e-21 4.60804e-05
0.000732994 -1.39403e-20 4.67774e-05
0.000753692 8.00441e-20 4.80503e-05
0.000774266 5.99187e-20 5.14843e-05
0.0008 1.25293e-19 5.37735e-05
0 0 0
1.95947e-05 -2.11774e-06 2.46714e-05
3.68381e-05 -4.01576e-06 3.44241e-05
5.35806e-05 -5.53819e-06 4.02885e-05
7.11792e-05 -6.61875e-06 4.34646e-05
8.96092e-05 -7.2989e-06 4.51461e-05
0.000108688 -7.67481e-06 4.5952e-05
0.000128211 -7.84757e-06 4.62662e-05
0.000148019 -7.8989e-06 4.63184e-05
0.000168 -7.88542e-06 4.62443e-05
0.000188079 -7.84281e-06 4.61215e-05
0.000208211 -7.79172e-06 4.59914e-05
0.000228366 -7.74293e-06 4.58742e-05
0.000248529 -7.7012e-06 4.57775e-05
0.000268691 -7.66792e-06 4.57024e-05
0.000288849 -7.64266e-06 4.56466e-05
0.000309 -7.62424e-06 4.56066e-05
0.000329146 -7.61125e-06 4.55789e-05
0.000349286 -7.60234e-06 4.55603e-05
0.000369422 -7.59634e-06 4.5548e-05
0.000389555 -7.59231e-06 4.55399e-05
0.000409686 -7.58948e-06 4.55343e-05
0.000429814 -7.58726e-06 4.55299e-05
0.000449941 -7.58517e-06 4.55257e-05
0.000470066 -7.58282e-06 4.55208e-05
0.000490191 -7.57989e-06 4.55145e-05
0.000510314 -7.57613e-06 4.5506e-05
0.000530437 -7.57142e-06 4.54951e-05
0.000550561 -7.56584e-06 4.54816e-05
0.000570687 -7.55985e-06 4.54662e-05
0.000590818 -7.55463e-06 4.54508e-05
0.000610961 -7.55247e-06 4.54397e-05
0.000631124 -7.5575e-06 4.54413e-05
0.00065132 -7.57644e-06 4.54704e-05
0.000671572 -7.61926e-06 4.55527e-05
0.000691909 -7.69848e-06 4.5733e-05
0.000712368 -7.825e-06 4.60882e-05
0.000732985 -7.99825e-06 4.67757e-05
0.000753674 -8.19304e-06 4.80342e-05
0.000774252 -8.35429e-06 5.14539e-05
0.0008 -8.40559e-06 5.37382e-05
0 0 0
1.96399e-05 -4.34778e-06 2.45106e-05
3.70801e-05 -8.2149e-06 3.41106e-05
5.40644e-05 -1.12476e-05 3.98977e-05
7.18303e-05 -1.33402e-05 4.30679e-05
9.03163e-05 -1.46243e-05 4.47918e-05
0.000109355 -1.53206e-05 4.56586e-05
0.000128784 -1.56381e-05 4.60381e-05
0.000148479 -1.57329e-05 4.61496e-05
0.000168351 -1.57099e-05 4.61247e-05
0.000188337 -1.5634e-05 4.604e-05
0.000208393 -1.55426e-05 4.5938e-05
0.00022849 -1.54551e-05 4.58406e-05
0.000248611 -1.53802e-05 4.57574e-05
0.000268743 -1.53203e-05 4.56911e-05
0.00028888 -1.52749e-05 4.56408e-05
0.000309018 -1.52417e-05 4.56041e-05
0.000329155 -1.52183e-05 4.55783e-05
0.000349291 -1.52022e-05 4.55605e-05
0.000369424 -1.51913e-05 4.55486e-05
0.000389555 -1.5184e-05 4.55406e-05
0.000409685 -1.51789e-05 4.5535e-05
0.000429814 -1.51749e-05 4.55306e-05
0.000449942 -1.51711e-05 4.55265e-05
0.000470069 -1.51669e-05 4.55218e-05
0.000490195 -1.51616e-05 4.55159e-05
0.000510322 -1.51548e-05 4.55084e-05
0.00053045 -1.51464e-05 4.54989e-05
0.00055058 -1.51363e-05 4.54875e-05
0.000570715 -1.51256e-05 4.54752e-05
0.000590857 -1.51162e-05 4.54641e-05
0.000611012 -1.51122e-05 4.54586e-05
0.000631187 -1.51211e-05 4.54666e-05
0.000651392 -1.51549e-05 4.55023e-05
0.000671644 -1.52321e-05 4.55895e-05
0.000691967 -1.53783e-05 4.57697e-05
0.000712393 -1.56201e-05 4.61146e-05
0.000732964 -1.59674e-05 4.67752e-05
0.000753622 -1.63792e-05 4.7989e-05
0.00077421 -1.67369e-05 5.13607e-05
0.0008 -1.68538e-05 5.36281e-05
0 0 0
1.97633e-05 -6.85085e-06 2.4232e-05
3.7628e-05 -1.28241e-05 3.3582e-05
5.50273e-05 -1.72987e-05 3.92555e-05
7.30311e-05 -2.02326e-05 4.24505e-05
9.15265e-05 -2.19598e-05 4.425e-05
0.000110437 -2.28824e-05 4.52214e-05
0.000129677 -2.33043e-05 4.57056e-05
0.000149175 -2.34374e-05 4.59085e-05
0.00016887 -2.34181e-05 4.59569e-05
0.000188709 -2.33295e-05 4.59277e-05
0.000208651 -2.32192e-05 4.58657e-05
0.000228663 -2.31122e-05 4.57961e-05
0.000248723 -2.30198e-05 4.57314e-05
0.000268813 -2.29457e-05 4.56769e-05
0.000288921 -2.2889e-05 4.56339e-05
0.000309041 -2.28475e-05 4.56015e-05
0.000329167 -2.28181e-05 4.55779e-05
0.000349295 -2.27979e-05 4.55613e-05
0.000369425 -2.27842e-05 4.55498e-05
0.000389555 -2.27749e-05 4.55418e-05
0.000409684 -2.27683e-05 4.55361e-05
0.000429814 -2.27632e-05 4.55316e-05
0.000449943 -2.27584e-05 4.55274e-05
0.000470072 -2.27531e-05 4.5523e-05
0.000490202 -2.27464e-05 4.55178e-05
0.000510333 -2.2738e-05 4.55114e-05
0.000530468 -2.27276e-05 4.55039e-05
0.000550608 -2.27153e-05 4.54956e-05
0.000570755 -2.27022e-05 4.54877e-05
0.000590914 -2.2691e-05 4.54828e-05
0.000611089 -2.26867e-05 4.54855e-05
0.000631286 -2.26986e-05 4.55038e-05
0.000651511 -2.27417e-05 4.55508e-05
0.000671775 -2.28402e-05 4.56481e-05
0.00069209 -2.30297e-05 4.58321e-05
0.000712472 -2.33582e-05 4.61671e-05
0.000732966 -2.38688e-05 4.67907e-05
0.000753551 -2.45368e-05 4.79271e-05
0.000774138 -2.51751e-05 5.11998e-05
0.0008 -2.53957e-05 5.34297e-05
0 0 0
2.01721e-05 -9.91518e-06 2.38304e-05
3.87644e-05 -1.81778e-05 3.28013e-05
5.68103e-05 -2.3835e-05 3.8462e-05
7.49141e-05 -2.7242e-05 4.16885e-05
9.32273e-05 -2.9212e-05 4.36154e-05
0.000111841 -3.02675e-05 4.47304e-05
0.000130771 -3.07715e-05 4.53459e-05
0.00014999 -3.09568e-05 4.56561e-05
0.000169455 -3.09705e-05 4.57864e-05
0.000189115 -3.0902e-05 4.58168e-05
0.000208923 -3.08033e-05 4.57965e-05
0.00022884 -3.07025e-05 4.5755e-05
0.000248833 -3.06129e-05 4.57085e-05
0.000268878 -3.05395e-05 4.56654e-05
0.000288958 -3.04827e-05 4.56291e-05
0.000309059 -3.04405e-05 4.56004e-05
0.000329174 -3.04103e-05 4.55787e-05
0.000349297 -3.03892e-05 4.55628e-05
0.000369423 -3.03748e-05 4.55514e-05
0.000389552 -3.0365e-05 4.55432e-05
0.000409682 -3.0358e-05 4.55373e-05
0.000429812 -3.03524e-05 4.55325e-05
0.000449942 -3.03473e-05 4.55283e-05
0.000470074 -3.03418e-05 4.5524e-05
0.000490207 -3.0335e-05 4.55194e-05
0.000510344 -3.03266e-05 4.55141e-05
0.000530487 -3.03164e-05 4.55085e-05
0.000550637 -3.03046e-05 4.55032e-05
0.000570799 -3.02928e-05 4.54999e-05
0.000590978 -3.02836e-05 4.55017e-05
0.000611179 -3.02825e-05 4.55137e-05
0.000631407 -3.02992e-05 4.55442e-05
0.000651669 -3.03494e-05 4.56064e-05
0.000671967 -3.04582e-05 4.57201e-05
0.000692302 -3.06655e-05 4.59174e-05
0.000712671 -3.10321e-05 4.62502e-05
0.000733075 -3.16529e-05 4.68441e-05
0.000753516 -3.26039e-05 4.78847e-05
0.000774047 -3.36852e-05 5.09704e-05
0.0008 -3.41031e-05 5.31133e-05
0 0 0
2.10443e-05 -1.44675e-05 2.30905e-05
4.1647e-05 -2.4788e-05 3.21687e-05
5.98137e-05 -3.06125e-05 3.76079e-05
7.74971e-05 -3.41441e-05 4.09708e-05
9.52618e-05 -3.62081e-05 4.30632e-05
0.000113363 -3.73739e-05 4.43318e-05
0.000131866 -3.7986e-05 4.50696e-05
0.000150753 -3.82675e-05 4.54713e-05
0.00016997 -3.83603e-05 4.56672e-05
0.000189452 -3.83534e-05 4.57429e-05
0.000209135 -3.83004e-05 4.57529e-05
0.000228968 -3.82323e-05 4.57309e-05
0.000248906 -3.81652e-05 4.56965e-05
0.000268916 -3.81069e-05 4.56605e-05
0.000288975 -3.80598e-05 4.56282e-05
0.000309065 -3.80236e-05 4.56014e-05
0.000329173 -3.79969e-05 4.55804e-05
0.000349293 -3.79777e-05 4.55646e-05
0.000369418 -3.79643e-05 4.5553e-05
0.000389547 -3.79548e-05 4.55445e-05
0.000409678 -3.7948e-05 4.55382e-05
0.000429809 -3.79426e-05 4.55332e-05
0.000449941 -3.79377e-05 4.55288e-05
0.000470074 -3.79326e-05 4.55245e-05
0.00049021 -3.79267e-05 4.55201e-05
0.000510351 -3.79199e-05 4.55155e-05
0.0005305 -3.7912e-05 4.55111e-05
0.00055066 -3.79038e-05 4.55079e-05
0.000570836 -3.78969e-05 4.5508e-05
0.000591034 -3.78945e-05 4.55148e-05
0.000611262 -3.79022e-05 4.55342e-05
0.000631528 -3.79295e-05 4.55752e-05
0.000651838 -3.79912e-05 4.56518e-05
0.000672198 -3.81108e-05 4.57845e-05
0.000692604 -3.83248e-05 4.60044e-05
0.00071304 -3.8694e-05 4.63587e-05
0.000733463 -3.93181e-05 4.69378e-05
0.000753727 -4.04449e-05 4.79188e-05
0.000774023 -4.2216e-05 5.07188e-05
0.0008 -4.30779e-05 5.2648e-05
0 0 0
2.74253e-05 -2.35669e-05 2.35669e-05
4.74528e-05 -3.13697e-05 3.13697e-05
6.40132e-05 -3.70986e-05 3.70986e-05
8.04219e-05 -4.06112e-05 4.06112e-05
9.72329e-05 -4.28264e-05 4.28264e-05
0.000114659 -4.41775e-05 4.41775e-05
0.000132694 -4.49714e-05 4.49714e-05
0.000151264 -4.54106e-05 4.54106e-05
0.000170271 -4.56312e-05 4.56312e-05
0.000189618 -4.57228e-05 4.57228e-05
0.000209218 -4.57426e-05 4.57426e-05
0.000229002 -4.57265e-05 4.57265e-05
0.000248913 -4.56954e-05 4.56954e-05
0.00026891 -4.56611e-05 4.56611e-05
0.000288963 -4.56294e-05 4.56294e-05
0.000309051 -4.56028e-05 4.56028e-05
0.000329161 -4.55817e-05 4.55817e-05
0.000349282 -4.55657e-05 4.55657e-05
0.00036941 -4.55539e-05 4.55539e-05
0.00038954 -4.55451e-05 4.55451e-05
0.000409672 -4.55386e-05 4.55386e-05
0.000429804 -4.55334e-05 4.55334e-05
0.000449937 -4.55288e-05 4.55288e-05
0.000470071 -4.55245e-05 4.55245e-05
0.000490208 -4.55201e-05 4.55201e-05
0.000510351 -4.55156e-05 4.55156e-05
0.000530502 -4.55116e-05 4.55116e-05
0.000550668 -4.5509e-05 4.5509e-05
0.000570853 -4.55101e-05 4.55101e-05
0.000591066 -4.55186e-05 4.55186e-05
0.000611316 -4.55407e-05 4.55407e-05
0.000631617 -4.55859e-05 4.55859e-05
0.000651978 -4.56688e-05 4.56688e-05
0.000672414 -4.58114e-05 4.58114e-05
0.000692932 -4.60471e-05 4.60471e-05
0.000713532 -4.64273e-05 4.64273e-05
0.0007342 -4.70543e-05 4.70543e-05
0.000754746 -4.80342e-05 4.80342e-05
0.000774856 -5.05292e-05 5.05292e-05
0.0008 -5.22075e-05 5.22075e-05
0 0 0
2.10443e-05 2.30905e-05 1.44675e-05
4.1647e-05 3.21687e-05 2.4788e-05
5.98137e-05 3.76079e-05 3.06125e-05
7.74971e-05 4.09708e-05 3.41441e-05
9.52618e-05 4.30632e-05 3.62081e-05
0.000113363 4.43318e-05 3.73739e-05
0.000131866 4.50696e-05 3.7986e-05
0.000150753 4.54713e-05 3.82675e-05
0.00016997 4.56672e-05 3.83603e-05
0.000189452 4.57429e-05 3.83534e-05
0.000209135 4.57529e-05 3.83004e-05
0.000228968 4.57309e-05 3.82323e-05
0.000248906 4.56965e-05 3.81652e-05
0.000268916 4.56605e-05 3.81069e-05
0.000288975 4.56282e-05 3.80598e-05
0.000309065 4.56014e-05 3.80236e-05
0.000329173 4.55804e-05 3.79969e-05
0.000349293 4.55646e-05 3.79777e-05
0.000369418 4.5553e-05 3.79643e-05
0.000389547 4.55445e-05 3.79548e-05
0.000409678 4.55382e-05 3.7948e-05
0.000429809 4.55332e-05 3.79426e-05
0.000449941 4.55288e-05 3.79377e-05
0.000470074 4.55245e-05 3.79326e-05
0.00049021 4.55201e-05 3.79267e-05
0.000510351 4.55155e-05 3.79199e-05
0.0005305 4.55111e-05 3.7912e-05
0.00055066 4.55079e-05 3.79038e-05