<?xml version="1.0"?>
<VTKFile type="UnstructuredGrid" version="0.1" byte_order="LittleEndian">
<UnstructuredGrid>
<Piece NumberOfPoints="1029" NumberOfCells="720">
<Points>
<DataArray type="Float32" NumberOfComponents="3" format="ascii">
0 0 0
0.005 0 0
0.01 0 0
0.015 0 0
0.02 0 0
0.025 0 0
0.03 0 0
0.035 0 0
0.04 0 0
0.045 0 0
0.05 0 0
0.055 0 0
0.06 0 0
0.065 0 0
0.07 0 0
0.075 0 0
0.08 0 0
0.085 0 0
0.09 0 0
0.095 0 0
0.1 0 0
0 0.005 0
0.005 0.005 0
0.01 0.005 0
0.015 0.005 0
0.02 0.005 0
0.025 0.005 0
0.03 0.005 0
0.035 0.005 0
0.04 0.005 0
0.045 0.005 0
0.05 0.005 0
0.055 0.005 0
0.06 0.005 0
0.065 0.005 0
0.07 0.005 0
0.075 0.005 0
0.08 0.005 0
0.085 0.005 0
0.09 0.005 0
0.095 0.005 0
0.1 0.005 0
0 0.01 0
0.005 0.01 0
0.01 0.01 0
0.015 0.01 0
0.02 0.01 0
0.025 0.01 0
0.03 0.01 0
0.035 0.01 0
0.04 0.01 0
0.045 0.01 0
0.05 0.01 0
0.055 0.01 0
0.06 0.01 0
0.065 0.01 0
0.07 0.01 0
0.075 0.01 0
0.08 0.01 0
0.085 0.01 0
0.09 0.01 0
0.095 0.01 0
0.1 0.01 0
0 0.015 0
0.005 0.015 0
0.01 0.015 0
0.015 0.015 0
0.02 0.015 0
0.025 0.015 0
0.03 0.015 0
0.035 0.015 0
0.04 0.015 0
0.045 0.015 0
0.05 0.015 0
0.055 0.015 0
0.06 0.015 0
0.065 0.015 0
0.07 0.015 0
0.075 0.015 0
0.08 0.015 0
0.085 0.015 0
0.09 0.015 0
0.095 0.015 0
0.1 0.015 0
0 0.02 0
0.005 0.02 0
0.01 0.02 0
0.015 0.02 0
0.02 0.02 0
0.025 0.02 0
0.03 0.02 0
0.035 0.02 0
0.04 0.02 0
0.045 0.02 0
0.05 0.02 0
0.055 0.02 0
0.06 0.02 0
0.065 0.02 0
0.07 0.02 0
0.075 0.02 0
0.08 0.02 0
0.085 0.02 0
0.09 0.02 0
0.095 0.02 0
0.1 0.02 0
0 0.025 0
0.005 0.025 0
0.01 0.025 0
0.015 0.025 0
0.02 0.025 0
0.025 0.025 0
0.03 0.025 0
0.035 0.025 0
0.04 0.025 0
0.045 0.025 0
0.05 0.025 0
0.055 0.025 0
0.06 0.025 0
0.065 0.025 0
0.07 0.025 0
0.075 0.025 0
0.08 0.025 0
0.085 0.025 0
0.09 0.025 0
0.095 0.025 0
0.1 0.025 0
0 0.03 0
0.005 0.03 0
0.01 0.03 0
0.015 0.03 0
0.02 0.03 0
0.025 0.03 0
0.03 0.03 0
0.035 0.03 0
0.04 0.03 0
0.045 0.03 0
0.05 0.03 0
0.055 0.03 0
0.06 0.03 0
0.065 0.03 0
0.07 0.03 0
0.075 0.03 0
0.08 0.03 0
0.085 0.03 0
0.09 0.03 0
0.095 0.03 0
0.1 0.03 0
0 0 0.005
0.005 0 0.005
0.01 0 0.005
0.015 0 0.005
0.02 0 0.005
0.025 0 0.005
0.03 0 0.005
0.035 0 0.005
0.04 0 0.005
0.045 0 0.005
0.05 0 0.005
0.055 0 0.005
0.06 0 0.005
0.065 0 0.005
0.07 0 0.005
0.075 0 0.005
0.08 0 0.005
0.085 0 0.005
0.09 0 0.005
0.095 0 0.005
0.1 0 0.005
0 0.005 0.005
0.005 0.005 0.005
0.01 0.005 0.005
0.015 0.005 0.005
0.02 0.005 0.005
0.025 0.005 0.005
0.03 0.005 0.005
0.035 0.005 0.005
0.04 0.005 0.005
0.045 0.005 0.005
0.05 0.005 0.005
0.055 0.005 0.005
0.06 0.005 0.005
0.065 0.005 0.005
0.07 0.005 0.005
0.075 0.005 0.005
0.08 0.005 0.005
0.085 0.005 0.005
0.09 0.005 0.005
0.095 0.005 0.005
0.1 0.005 0.005
0 0.01 0.005
0.005 0.01 0.005
0.01 0.01 0.005
0.015 0.01 0.005
0.02 0.01 0.005
0.025 0.01 0.005
0.03 0.01 0.005
0.035 0.01 0.005
0.04 0.01 0.005
0.045 0.01 0.005
0.05 0.01 0.005
0.055 0.01 0.005
0.06 0.01 0.005
0.065 0.01 0.005
0.07 0.01 0.005
0.075 0.01 0.005
0.08 0.01 0.005
0.085 0.01 0.005
0.09 0.01 0.005
0.095 0.01 0.005
0.1 0.01 0.005
0 0.015 0.005
0.005 0.015 0.005
0.01 0.015 0.005
0.015 0.015 0.005
0.02 0.015 0.005
0.025 0.015 0.005
0.03 0.015 0.005
0.035 0.015 0.005
0.04 0.015 0.005
0.045 0.015 0.005
0.05 0.015 0.005
0.055 0.015 0.005
0.06 0.015 0.005
0.065 0.015 0.005
0.07 0.015 0.005
0.075 0.015 0.005
0.08 0.015 0.005
0.085 0.015 0.005
0.09 0.015 0.005
0.095 0.015 0.005
0.1 0.015 0.005
0 0.02 0.005
0.005 0.02 0.005
0.01 0.02 0.005
0.015 0.02 0.005
0.02 0.02 0.005
0.025 0.02 0.005
0.03 0.02 0.005
0.035 0.02 0.005
0.04 0.02 0.005
0.045 0.02 0.005
0.05 0.02 0.005
0.055 0.02 0.005
0.06 0.02 0.005
0.065 0.02 0.005
0.07 0.02 0.005
0.075 0.02 0.005
0.08 0.02 0.005
0.085 0.02 0.005
0.09 0.02 0.005
0.095 0.02 0.005
0.1 0.02 0.005
0 0.025 0.005
0.005 0.025 0.005
0.01 0.025 0.005
0.015 0.025 0.005
0.02 0.025 0.005
0.025 0.025 0.005
0.03 0.025 0.005
0.035 0.025 0.005
0.04 0.025 0.005
0.045 0.025 0.005
0.05 0.025 0.005
0.055 0.025 0.005
0.06 0.025 0.005
0.065 0.025 0.005
0.07 0.025 0.005
0.075 0.025 0.005
0.08 0.025 0.005
0.085 0.025 0.005
0.09 0.025 0.005
0.095 0.025 0.005
0.1 0.025 0.005
0 0.03 0.005
0.005 0.03 0.005
0.01 0.03 0.005
0.015 0.03 0.005
0.02 0.03 0.005
0.025 0.03 0.005
0.03 0.03 0.005
0.035 0.03 0.005
0.04 0.03 0.005
0.045 0.03 0.005
0.05 0.03 0.005
0.055 0.03 0.005
0.06 0.03 0.005
0.065 0.03 0.005
0.07 0.03 0.005
0.075 0.03 0.005
0.08 0.03 0.005
0.085 0.03 0.005
0.09 0.03 0.005
0.095 0.03 0.005
0.1 0.03 0.005
0 0 0.01
0.005 0 0.01
0.01 0 0.01
0.015 0 0.01
0.02 0 0.01
0.025 0 0.01
0.03 0 0.01
0.035 0 0.01
0.04 0 0.01
0.045 0 0.01
0.05 0 0.01
0.055 0 0.01
0.06 0 0.01
0.065 0 0.01
0.07 0 0.01
0.075 0 0.01
0.08 0 0.01
0.085 0 0.01
0.09 0 0.01
0.095 0 0.01
0.1 0 0.01
0 0.005 0.01
0.005 0.005 0.01
0.01 0.005 0.01
0.015 0.005 0.01
0.02 0.005 0.01
0.025 0.005 0.01
0.03 0.005 0.01
0.035 0.005 0.01
0.04 0.005 0.01
0.045 0.005 0.01
0.05 0.005 0.01
0.055 0.005 0.01
0.06 0.005 0.01
0.065 0.005 0.01
0.07 0.005 0.01
0.075 0.005 0.01
0.08 0.005 0.01
0.085 0.005 0.01
0.09 0.005 0.01
0.095 0.005 0.01
0.1 0.005 0.01
0 0.01 0.01
0.005 0.01 0.01
0.01 0.01 0.01
0.015 0.01 0.01
0.02 0.01 0.01
0.025 0.01 0.01
0.03 0.01 0.01
0.035 0.01 0.01
0.04 0.01 0.01
0.045 0.01 0.01
0.05 0.01 0.01
0.055 0.01 0.01
0.06 0.01 0.01
0.065 0.01 0.01
0.07 0.01 0.01
0.075 0.01 0.01
0.08 0.01 0.01
0.085 0.01 0.01
0.09 0.01 0.01
0.095 0.01 0.01
0.1 0.01 0.01
0 0.015 0.01
0.005 0.015 0.01
0.01 0.015 0.01
0.015 0.015 0.01
0.02 0.015 0.01
0.025 0.015 0.01
0.03 0.015 0.01
0.035 0.015 0.01
0.04 0.015 0.01
0.045 0.015 0.01
0.05 0.015 0.01
0.055 0.015 0.01
0.06 0.015 0.01
0.065 0.015 0.01
0.07 0.015 0.01
0.075 0.015 0.01
0.08 0.015 0.01
0.085 0.015 0.01
0.09 0.015 0.01
0.095 0.015 0.01
0.1 0.015 0.01
0 0.02 0.01
0.005 0.02 0.01
0.01 0.02 0.01
0.015 0.02 0.01
0.02 0.02 0.01
0.025 0.02 0.01
0.03 0.02 0.01
0.035 0.02 0.01
0.04 0.02 0.01
0.045 0.02 0.01
0.05 0.02 0.01
0.055 0.02 0.01
0.06 0.02 0.01
0.065 0.02 0.01
0.07 0.02 0.01
0.075 0.02 0.01
0.08 0.02 0.01
0.085 0.02 0.01
0.09 0.02 0.01
0.095 0.02 0.01
0.1 0.02 0.01
0 0.025 0.01
0.005 0.025 0.01
0.01 0.025 0.01
0.015 0.025 0.01
0.02 0.025 0.01
0.025 0.025 0.01
0.03 0.025 0.01
0.035 0.025 0.01
0.04 0.025 0.01
0.045 0.025 0.01
0.05 0.025 0.01
0.055 0.025 0.01
0.06 0.025 0.01
0.065 0.025 0.01
0.07 0.025 0.01
0.075 0.025 0.01
0.08 0.025 0.01
0.085 0.025 0.01
0.09 0.025 0.01
0.095 0.025 0.01
0.1 0.025 0.01
0 0.03 0.01
0.005 0.03 0.01
0.01 0.03 0.01
0.015 0.03 0.01
0.02 0.03 0.01
0.025 0.03 0.01
0.03 0.03 0.01
0.035 0.03 0.01
0.04 0.03 0.01
0.045 0.03 0.01
0.05 0.03 0.01
0.055 0.03 0.01
0.06 0.03 0.01
0.065 0.03 0.01
0.07 0.03 0.01
0.075 0.03 0.01
0.08 0.03 0.01
0.085 0.03 0.01
0.09 0.03 0.01
0.095 0.03 0.01
0.1 0.03 0.01
0 0 0.015
0.005 0 0.015
0.01 0 0.015
0.015 0 0.015
0.02 0 0.015
0.025 0 0.015
0.03 0 0.015
0.035 0 0.015
0.04 0 0.015
0.045 0 0.015
0.05 0 0.015
0.055 0 0.015
0.06 0 0.015
0.065 0 0.015
0.07 0 0.015
0.075 0 0.015
0.08 0 0.015
0.085 0 0.015
0.09 0 0.015
0.095 0 0.015
0.1 0 0.015
0 0.005 0.015
0.005 0.005 0.015
0.01 0.005 0.015
0.015 0.005 0.015
0.02 0.005 0.015
0.025 0.005 0.015
0.03 0.005 0.015
0.035 0.005 0.015
0.04 0.005 0.015
0.045 0.005 0.015
0.05 0.005 0.015
0.055 0.005 0.015
0.06 0.005 0.015
0.065 0.005 0.015
0.07 0.005 0.015
0.075 0.005 0.015
0.08 0.005 0.015
0.085 0.005 0.015
0.09 0.005 0.015
0.095 0.005 0.015
0.1 0.005 0.015
0 0.01 0.015
0.005 0.01 0.015
0.01 0.01 0.015
0.015 0.01 0.015
0.02 0.01 0.015
0.025 0.01 0.015
0.03 0.01 0.015
0.035 0.01 0.015
0.04 0.01 0.015
0.045 0.01 0.015
0.05 0.01 0.015
0.055 0.01 0.015
0.06 0.01 0.015
0.065 0.01 0.015
0.07 0.01 0.015
0.075 0.01 0.015
0.08 0.01 0.015
0.085 0.01 0.015
0.09 0.01 0.015
0.095 0.01 0.015
0.1 0.01 0.015
0 0.015 0.015
0.005 0.015 0.015
0.01 0.015 0.015
0.015 0.015 0.015
0.02 0.015 0.015
0.025 0.015 0.015
0.03 0.015 0.015
0.035 0.015 0.015
0.04 0.015 0.015
0.045 0.015 0.015
0.05 0.015 0.015
0.055 0.015 0.015
0.06 0.015 0.015
0.065 0.015 0.015
0.07 0.015 0.015
0.075 0.015 0.015
0.08 0.015 0.015
0.085 0.015 0.015
0.09 0.015 0.015
0.095 0.015 0.015
0.1 0.015 0.015
0 0.02 0.015
0.005 0.02 0.015
0.01 0.02 0.015
0.015 0.02 0.015
0.02 0.02 0.015
0.025 0.02 0.015
0.03 0.02 0.015
0.035 0.02 0.015
0.04 0.02 0.015
0.045 0.02 0.015
0.05 0.02 0.015
0.055 0.02 0.015
0.06 0.02 0.015
0.065 0.02 0.015
0.07 0.02 0.015
0.075 0.02 0.015
0.08 0.02 0.015
0.085 0.02 0.015
0.09 0.02 0.015
0.095 0.02 0.015
0.1 0.02 0.015
0 0.025 0.015
0.005 0.025 0.015
0.01 0.025 0.015
0.015 0.025 0.015
0.02 0.025 0.015
0.025 0.025 0.015
0.03 0.025 0.015
0.035 0.025 0.015
0.04 0.025 0.015
0.045 0.025 0.015
0.05 0.025 0.015
0.055 0.025 0.015
0.06 0.025 0.015
0.065 0.025 0.015
0.07 0.025 0.015
0.075 0.025 0.015
0.08 0.025 0.015
0.085 0.025 0.015
0.09 0.025 0.015
0.095 0.025 0.015
0.1 0.025 0.015
0 0.03 0.015
0.005 0.03 0.015
0.01 0.03 0.015
0.015 0.03 0.015
0.02 0.03 0.015
0.025 0.03 0.015
0.03 0.03 0.015
0.035 0.03 0.015
0.04 0.03 0.015
0.045 0.03 0.015
0.05 0.03 0.015
0.055 0.03 0.015
0.06 0.03 0.015
0.065 0.03 0.015
0.07 0.03 0.015
0.075 0.03 0.015
0.08 0.03 0.015
0.085 0.03 0.015
0.09 0.03 0.015
0.095 0.03 0.015
0.1 0.03 0.015
0 0 0.02
0.005 0 0.02
0.01 0 0.02
0.015 0 0.02
0.02 0 0.02
0.025 0 0.02
0.03 0 0.02
0.035 0 0.02
0.04 0 0.02
0.045 0 0.02
0.05 0 0.02
0.055 0 0.02
0.06 0 0.02
0.065 0 0.02
0.07 0 0.02
0.075 0 0.02
0.08 0 0.02
0.085 0 0.02
0.09 0 0.02
0.095 0 0.02
0.1 0 0.02
0 0.005 0.02
0.005 0.005 0.02
0.01 0.005 0.02
0.015 0.005 0.02
0.02 0.005 0.02
0.025 0.005 0.02
0.03 0.005 0.02
0.035 0.005 0.02
0.04 0.005 0.02
0.045 0.005 0.02
0.05 0.005 0.02
0.055 0.005 0.02
0.06 0.005 0.02
0.065 0.005 0.02
0.07 0.005 0.02
0.075 0.005 0.02
0.08 0.005 0.02
0.085 0.005 0.02
0.09 0.005 0.02
0.095 0.005 0.02
0.1 0.005 0.02
0 0.01 0.02
0.005 0.01 0.02
0.01 0.01 0.02
0.015 0.01 0.02
0.02 0.01 0.02
0.025 0.01 0.02
0.03 0.01 0.02
0.035 0.01 0.02
0.04 0.01 0.02
0.045 0.01 0.02
0.05 0.01 0.02
0.055 0.01 0.02
0.06 0.01 0.02
0.065 0.01 0.02
0.07 0.01 0.02
0.075 0.01 0.02
0.08 0.01 0.02
0.085 0.01 0.02
0.09 0.01 0.02
0.095 0.01 0.02
[...]
<PointData Vectors="Displacement">
<DataArray type="Float32" Name="Displacement" NumberOfComponents="3" format="ascii">
0 0 0
0.000403198 0.000100002 0.000100002
0.000740743 0.000129046 0.000129046
0.0010794 0.000142053 0.000142053
0.00142567 0.000145911 0.000145911
0.00177796 0.000146649 0.000146649
0.00213383 0.000146406 0.000146406
0.00249147 0.000146046 0.000146046
0.00284985 0.000145795 0.000145795
0.0032085 0.000145674 0.000145674
0.00356722 0.000145664 0.000145664
0.00392592 0.000145769 0.000145769
0.00428445 0.000146022 0.000146022
0.0046424 0.000146448 0.000146448
0.00499883 0.000146937 0.000146937
0.00535198 0.000146881 0.000146881
0.00569903 0.000144559 0.000144559
0.00603674 0.000135108 0.000135108
0.00636486 0.000110898 0.000110898
0.00671796 2.66514e-05 2.66514e-05
0.007 -3.42469e-05 -3.42469e-05
0 0 0
0.000371287 5.17487e-05 0.00010016
0.000722608 8.41814e-05 0.000130568
0.00107066 9.50455e-05 0.000142644
0.00142209 9.82209e-05 0.000146195
0.00177677 9.84495e-05 0.000146747
0.00213359 9.79871e-05 0.00014643
0.00249151 9.75399e-05 0.000146045
0.00284993 9.72627e-05 0.000145788
0.00320853 9.71357e-05 0.000145667
0.00356719 9.71245e-05 0.000145657
0.00392582 9.72302e-05 0.000145761
0.00428433 9.74971e-05 0.000146015
0.00464244 9.7984e-05 0.000146458
0.00499958 9.86471e-05 0.000147004
0.0053547 9.90269e-05 0.000147104
0.00570633 9.74144e-05 0.000145099
0.00605331 8.97224e-05 0.000136433
0.00639847 6.40773e-05 0.000112827
0.00675241 1.56749e-05 2.36504e-05
0.007 -1.38159e-05 -4.29693e-05
0 0 0
0.00036706 2.32907e-05 0.000101756
0.00071211 3.99245e-05 0.000132304
0.001063 4.75422e-05 0.000143914
0.00141777 4.94661e-05 0.000146816
0.00177476 4.9536e-05 0.000147005
0.0021328 4.91759e-05 0.000146513
0.00249127 4.8858e-05 0.000146059
0.00284988 4.86664e-05 0.000145781
0.00320852 4.85801e-05 0.000145654
0.00356717 4.85723e-05 0.000145643
0.00392583 4.86432e-05 0.000145748
0.00428447 4.88249e-05 0.000146016
0.00464302 4.91635e-05 0.000146511
0.00500124 4.96466e-05 0.000147203
0.00535858 4.99787e-05 0.00014764
0.00571386 4.9062e-05 0.000146295
0.00606511 4.35629e-05 0.00013837
0.00640825 2.89161e-05 0.00011432
0.00675587 8.16425e-06 1.93669e-05
0.007 -3.7927e-06 -5.35548e-05
0 0 0
0.000365943 -4.3288e-21 0.000102215
0.000709767 6.72112e-20 0.000133058
0.00106018 1.86497e-19 0.00014444
0.00141598 2.11004e-19 0.000147121
0.00177384 8.63804e-20 0.000147137
0.00213241 1.47328e-19 0.00014656
0.00249113 6.15032e-20 0.00014607
0.00284984 2.84967e-19 0.000145779
0.00320851 2.2442e-19 0.000145649
0.00356717 3.70567e-19 0.000145637
0.00392585 5.20732e-19 0.000145744
0.00428457 4.18373e-19 0.00014602
0.00464333 6.13843e-19 0.000146543
0.00500204 6.19249e-19 0.00014731
0.00536026 5.96216e-19 0.000147912
0.00571683 8.55481e-19 0.000146826
0.00606839 1.26327e-18 0.000139131
0.00640989 1.00754e-18 0.000114487
0.00675583 5.26654e-19 1.75479e-05
0.007 9.90653e-19 -5.70145e-05
0 0 0
0.00036706 -2.32907e-05 0.000101756
0.00071211 -3.99245e-05 0.000132304
0.001063 -4.75422e-05 0.000143914
0.00141777 -4.94661e-05 0.000146816
0.00177476 -4.9536e-05 0.000147005
0.0021328 -4.91759e-05 0.000146513
0.00249127 -4.8858e-05 0.000146059
0.00284988 -4.86664e-05 0.000145781
0.00320852 -4.85801e-05 0.000145654
0.00356717 -4.85723e-05 0.000145643
0.00392583 -4.86432e-05 0.000145748
0.00428447 -4.88249e-05 0.000146016
0.00464302 -4.91635e-05 0.000146511
0.00500124 -4.96466e-05 0.000147203
0.00535858 -4.99787e-05 0.00014764
0.00571386 -4.9062e-05 0.000146295
0.00606511 -4.35629e-05 0.00013837
0.00640825 -2.89161e-05 0.00011432
0.00675587 -8.16425e-06 1.93669e-05
0.007 3.7927e-06 -5.35548e-05
0 0 0
0.000371287 -5.17487e-05 0.00010016
0.000722608 -8.41814e-05 0.000130568
0.00107066 -9.50455e-05 0.000142644
0.00142209 -9.82209e-05 0.000146195
0.00177677 -9.84495e-05 0.000146747
0.00213359 -9.79871e-05 0.00014643
0.00249151 -9.75399e-05 0.000146045
0.00284993 -9.72627e-05 0.000145788
0.00320853 -9.71357e-05 0.000145667
0.00356719 -9.71245e-05 0.000145657
0.00392582 -9.72302e-05 0.000145761
0.00428433 -9.74971e-05 0.000146015
0.00464244 -9.7984e-05 0.000146458
0.00499958 -9.86471e-05 0.000147004
0.0053547 -9.90269e-05 0.000147104
0.00570633 -9.74144e-05 0.000145099
0.00605331 -8.97224e-05 0.000136433
0.00639847 -6.40773e-05 0.000112827
0.00675241 -1.56749e-05 2.36504e-05
0.007 1.38159e-05 -4.29693e-05
0 0 0
0.000403198 -0.000100002 0.000100002
0.000740743 -0.000129046 0.000129046
0.0010794 -0.000142053 0.000142053
0.00142567 -0.000145911 0.000145911
0.00177796 -0.000146649 0.000146649
0.00213383 -0.000146406 0.000146406
0.00249147 -0.000146046 0.000146046
0.00284985 -0.000145795 0.000145795
0.0032085 -0.000145674 0.000145674
0.00356722 -0.000145664 0.000145664
0.00392592 -0.000145769 0.000145769
0.00428445 -0.000146022 0.000146022
0.0046424 -0.000146448 0.000146448
0.00499883 -0.000146937 0.000146937
0.00535198 -0.000146881 0.000146881
0.00569903 -0.000144559 0.000144559
0.00603674 -0.000135108 0.000135108
0.00636486 -0.000110898 0.000110898
0.00671796 -2.66514e-05 2.66514e-05
0.007 3.42469e-05 -3.42469e-05
0 0 0
0.000371287 0.00010016 5.17487e-05
0.000722608 0.000130568 8.41814e-05
0.00107066 0.000142644 9.50455e-05
0.00142209 0.000146195 9.82209e-05
0.00177677 0.000146747 9.84495e-05
0.00213359 0.00014643 9.79871e-05
0.00249151 0.000146045 9.75399e-05
0.00284993 0.000145788 9.72627e-05
0.00320853 0.000145667 9.71357e-05
0.00356719 0.000145657 9.71245e-05
0.00392582 0.000145761 9.72302e-05
0.00428433 0.000146015 9.74971e-05
0.00464244 0.000146458 9.7984e-05
0.00499958 0.000147004 9.86471e-05
0.0053547 0.000147104 9.90269e-05
0.00570633 0.000145099 9.74144e-05
0.00605331 0.000136433 8.97224e-05
0.00639847 0.000112827 6.40773e-05
0.00675241 2.36504e-05 1.56749e-05
0.007 -4.29693e-05 -1.38159e-05
0 0 0
0.000338788 5.1573e-05 5.1573e-05
0.000704415 8.39873e-05 8.39873e-05
0.00106226 9.49443e-05 9.49443e-05
0.00141871 9.81414e-05 9.81414e-05
0.00177569 9.84124e-05 9.84124e-05
0.00213339 9.79706e-05 9.79706e-05
0.00249157 9.75344e-05 9.75344e-05
0.00285001 9.72617e-05 9.72617e-05
0.00320856 9.71363e-05 9.71363e-05
0.00356715 9.71254e-05 9.71254e-05
0.00392572 9.723e-05 9.723e-05
0.0042842 9.74934e-05 9.74934e-05
0.00464245 9.79711e-05 9.79711e-05
0.00500024 9.8615e-05 9.8615e-05
0.00535723 9.89595e-05 9.89595e-05
0.00571332 9.73108e-05 9.73108e-05
0.00606971 8.96496e-05 8.96496e-05
0.00643357 6.40336e-05 6.40336e-05
0.00678922 1.55661e-05 1.55661e-05
0.007 -1.42087e-05 -1.42087e-05
0 0 0
0.000334365 2.29277e-05 5.21975e-05
0.000693927 3.95006e-05 8.49557e-05
0.00105476 4.7225e-05 9.56309e-05
0.00141458 4.92905e-05 9.84953e-05
0.00177379 4.94535e-05 9.85554e-05
0.00213266 4.91447e-05 9.80156e-05
0.00249135 4.88493e-05 9.7541e-05
0.00284997 4.86663e-05 9.72567e-05
0.00320856 4.85826e-05 9.71287e-05
0.00356714 4.85752e-05 9.71172e-05
0.00392572 4.86448e-05 9.72223e-05
0.00428432 4.88204e-05 9.74924e-05
0.00464298 4.91408e-05 9.79987e-05
0.00500179 4.95792e-05 9.87265e-05
0.00536092 4.98221e-05 9.92714e-05
0.00572066 4.87712e-05 9.79938e-05
0.00608172 4.31669e-05 9.07329e-05
0.00644452 2.87902e-05 6.44516e-05
0.00679395 8.88475e-06 1.28277e-05
0.007 -2.48572e-06 -1.98207e-05
0 0 0
0.000333124 6.66467e-20 5.25245e-05
0.000691575 1.01599e-19 8.53868e-05
0.00105201 1.19621e-19 9.59797e-05
0.00141287 2.26503e-19 9.86882e-05
0.00177293 1.49216e-19 9.86402e-05
0.00213229 1.99898e-19 9.80445e-05
0.00249122 3.06794e-19 9.75471e-05
0.00284994 2.04126e-19 9.72551e-05
0.00320855 1.2404e-19 9.71251e-05
0.00356714 4.21876e-19 9.71132e-05
0.00392574 3.56152e-19 9.72191e-05
0.00428441 4.85513e-19 9.74943e-05
0.00464327 4.91415e-19 9.80184e-05
0.00500254 5.75534e-19 9.8795e-05
0.00536253 6.13991e-19 9.94476e-05
0.00572355 8.09164e-19 9.83482e-05
0.00608509 9.54911e-19 9.1192e-05
0.00644667 8.0774e-19 6.4463e-05
0.00679449 7.335e-19 1.15821e-05
0.007 7.37953e-19 -2.20485e-05
0 0 0
0.000334365 -2.29277e-05 5.21975e-05
0.000693927 -3.95006e-05 8.49557e-05
0.00105476 -4.7225e-05 9.56309e-05
0.00141458 -4.92905e-05 9.84953e-05
0.00177379 -4.94535e-05 9.85554e-05
0.00213266 -4.91447e-05 9.80156e-05
0.00249135 -4.88493e-05 9.7541e-05
0.00284997 -4.86663e-05 9.72567e-05
0.00320856 -4.85826e-05 9.71287e-05
0.00356714 -4.85752e-05 9.71172e-05
0.00392572 -4.86448e-05 9.72223e-05
0.00428432 -4.88204e-05 9.74924e-05
0.00464298 -4.91408e-05 9.79987e-05
0.00500179 -4.95792e-05 9.87265e-05
0.00536092 -4.98221e-05 9.92714e-05
0.00572066 -4.87712e-05 9.79938e-05
0.00608172 -4.31669e-05 9.07329e-05
0.00644452 -2.87902e-05 6.44516e-05
0.00679395 -8.88475e-06 1.28277e-05
0.007 2.48572e-06 -1.98207e-05
0 0 0
0.000338788 -5.1573e-05 5.1573e-05
0.000704415 -8.39873e-05 8.39873e-05
0.00106226 -9.49443e-05 9.49443e-05
0.00141871 -9.81414e-05 9.81414e-05
0.00177569 -9.84124e-05 9.84124e-05
0.00213339 -9.79706e-05 9.79706e-05
0.00249157 -9.75344e-05 9.75344e-05
0.00285001 -9.72617e-05 9.72617e-05
0.00320856 -9.71363e-05 9.71363e-05
0.00356715 -9.71254e-05 9.71254e-05
0.00392572 -9.723e-05 9.723e-05
0.0042842 -9.74934e-05 9.74934e-05
0.00464245 -9.79711e-05 9.79711e-05
0.00500024 -9.8615e-05 9.8615e-05
0.00535723 -9.89595e-05 9.89595e-05
0.00571332 -9.73108e-05 9.73108e-05
0.00606971 -8.96496e-05 8.96496e-05
0.00643357 -6.40336e-05 6.40336e-05
0.00678922 -1.55661e-05 1.55661e-05
0.007 1.42087e-05 -1.42087e-05
0 0 0
0.000371287 -0.00010016 5.17487e-05
0.000722608 -0.000130568 8.41814e-05
0.00107066 -0.000142644 9.50455e-05
0.00142209 -0.000146195 9.82209e-05
0.00177677 -0.000146747 9.84495e-05
0.00213359 -0.00014643 9.79871e-05
0.00249151 -0.000146045 9.75399e-05
0.00284993 -0.000145788 9.72627e-05
0.00320853 -0.000145667 9.71357e-05
0.00356719 -0.000145657 9.71245e-05
0.00392582 -0.000145761 9.72302e-05
0.00428433 -0.000146015 9.74971e-05
0.00464244 -0.000146458 9.7984e-05
0.00499958 -0.000147004 9.86471e-05
0.0053547 -0.000147104 9.90269e-05
0.00570633 -0.000145099 9.74144e-05
0.00605331 -0.000136433 8.97224e-05
0.00639847 -0.000112827 6.40773e-05
0.00675241 -2.36504e-05 1.56749e-05
0.007 4.29693e-05 -1.38159e-05
0 0 0
0.00036706 0.000101756 2.32907e-05
0.00071211 0.000132304 3.99245e-05
0.001063 0.000143914 4.75422e-05
0.00141777 0.000146816 4.94661e-05
0.00177476 0.000147005 4.9536e-05
0.0021328 0.000146513 4.91759e-05
0.00249127 0.000146059 4.8858e-05
0.00284988 0.000145781 4.86664e-05
0.00320852 0.000145654 4.85801e-05
0.00356717 0.000145643 4.85723e-05
0.00392583 0.000145748 4.86432e-05
0.00428447 0.000146016 4.88249e-05
0.00464302 0.000146511 4.91635e-05
0.00500124 0.000147203 4.96466e-05
0.00535858 0.00014764 4.99787e-05
0.00571386 0.000146295 4.9062e-05
0.00606511 0.00013837 4.35629e-05
0.00640825 0.00011432 2.89161e-05
0.00675587 1.93669e-05 8.16425e-06
0.007 -5.35548e-05 -3.7927e-06
0 0 0
0.000334365 5.21975e-05 2.29277e-05
0.000693927 8.49557e-05 3.95006e-05
0.00105476 9.56309e-05 4.7225e-05
0.00141458 9.84953e-05 4.92905e-05
0.00177379 9.85554e-05 4.94535e-05
0.00213266 9.80156e-05 4.91447e-05
0.00249135 9.7541e-05 4.88493e-05
0.00284997 9.72567e-05 4.86663e-05
0.00320856 9.71287e-05 4.85826e-05
0.00356714 9.71172e-05 4.85752e-05
0.00392572 9.72223e-05 4.86448e-05
0.00428432 9.74924e-05 4.88204e-05
0.00464298 9.79987e-05 4.91408e-05
0.00500179 9.87265e-05 4.95792e-05
0.00536092 9.92714e-05 4.98221e-05
0.00572066 9.79938e-05 4.87712e-05
0.00608172 9.07329e-05 4.31669e-05
0.00644452 6.44516e-05 2.87902e-05
0.00679395 1.28277e-05 8.88475e-06
0.007 -1.98207e-05 -2.48572e-06
0 0 0
0.000330093 2.3174e-05 2.3174e-05
0.000683388 3.98246e-05 3.98246e-05
0.00104719 4.74905e-05 4.74905e-05
0.00141043 4.94356e-05 4.94356e-05
0.00177191 4.9514e-05 4.9514e-05
0.00213195 4.91634e-05 4.91634e-05
0.00249115 4.8852e-05 4.8852e-05
0.00284994 4.86641e-05 4.86641e-05
0.00320856 4.85794e-05 4.85794e-05
0.00356712 4.85717e-05 4.85717e-05
0.00392572 4.86414e-05 4.86414e-05
0.00428443 4.882e-05 4.882e-05
0.0046435 4.91525e-05 4.91525e-05
0.00500333 4.96279e-05 4.96279e-05
0.00536464 4.99576e-05 4.99576e-05
0.00572817 4.9056e-05 4.9056e-05
0.00609405 4.35282e-05 4.35282e-05
0.00645532 2.87753e-05 2.87753e-05
0.00679777 7.82533e-06 7.82533e-06
0.007 -4.52641e-06 -4.52641e-06
0 0 0
0.000328897 2.87375e-20 2.33031e-05
0.000681041 6.54575e-20 4.00122e-05
0.00104441 2.37873e-20 4.76424e-05
0.0014087 1.68752e-19 4.9524e-05
0.00177105 1.65206e-19 4.95532e-05
0.00213158 2.71978e-19 4.91769e-05
0.00249102 1.85816e-19 4.88548e-05
0.0028499 3.19361e-19 4.86634e-05
0.00320855 1.24717e-19 4.85777e-05
0.00356712 2.6855e-19 4.85698e-05
0.00392573 3.48403e-19 4.86399e-05
0.00428452 3.98145e-19 4.88208e-05
0.00464378 5.86953e-19 4.91618e-05
0.00500408 5.67965e-19 4.96604e-05
0.00536626 6.15552e-19 5.00411e-05
0.00573113 7.12921e-19 4.92152e-05
0.00609748 7.57646e-19 4.37103e-05
0.00645734 7.54704e-19 2.87317e-05
0.00679804 3.78667e-19 7.25875e-06
0.007 4.67278e-19 -5.52301e-06
0 0 0
0.000330093 -2.3174e-05 2.3174e-05
0.000683388 -3.98246e-05 3.98246e-05
0.00104719 -4.74905e-05 4.74905e-05
0.00141043 -4.94356e-05 4.94356e-05
0.00177191 -4.9514e-05 4.9514e-05
0.00213195 -4.91634e-05 4.91634e-05
0.00249115 -4.8852e-05 4.8852e-05
0.00284994 -4.86641e-05 4.86641e-05
0.00320856 -4.85794e-05 4.85794e-05
0.00356712 -4.85717e-05 4.85717e-05
0.00392572 -4.86414e-05 4.86414e-05
0.00428443 -4.882e-05 4.882e-05
0.0046435 -4.91525e-05 4.91525e-05
0.00500333 -4.96279e-05 4.96279e-05
0.00536464 -4.99576e-05 4.99576e-05
0.00572817 -4.9056e-05 4.9056e-05
0.00609405 -4.35282e-05 4.35282e-05
0.00645532 -2.87753e-05 2.87753e-05
0.00679777 -7.82533e-06 7.82533e-06
0.007 4.52641e-06 -4.52641e-06
0 0 0
0.000334365 -5.21975e-05 2.29277e-05
0.000693927 -8.49557e-05 3.95006e-05
0.00105476 -9.56309e-05 4.7225e-05
0.00141458 -9.84953e-05 4.92905e-05
0.00177379 -9.85554e-05 4.94535e-05
0.00213266 -9.80156e-05 4.91447e-05
0.00249135 -9.7541e-05 4.88493e-05
0.00284997 -9.72567e-05 4.86663e-05
0.00320856 -9.71287e-05 4.85826e-05
0.00356714 -9.71172e-05 4.85752e-05
0.00392572 -9.72223e-05 4.86448e-05
0.00428432 -9.74924e-05 4.88204e-05
0.00464298 -9.79987e-05 4.91408e-05
0.00500179 -9.87265e-05 4.95792e-05
0.00536092 -9.92714e-05 4.98221e-05
0.00572066 -9.79938e-05 4.87712e-05
0.00608172 -9.07329e-05 4.31669e-05
0.00644452 -6.44516e-05 2.87902e-05
0.00679395 -1.28277e-05 8.88475e-06
0.007 1.98207e-05 -2.48572e-06
0 0 0
0.00036706 -0.000101756 2.32907e-05
0.00071211 -0.000132304 3.99245e-05
0.001063 -0.000143914 4.75422e-05
0.00141777 -0.000146816 4.94661e-05
0.00177476 -0.000147005 4.9536e-05
0.0021328 -0.000146513 4.91759e-05
0.00249127 -0.000146059 4.8858e-05
0.00284988 -0.000145781 4.86664e-05
0.00320852 -0.000145654 4.85801e-05
0.00356717 -0.000145643 4.85723e-05
0.00392583 -0.000145748 4.86432e-05
0.00428447 -0.000146016 4.88249e-05
0.00464302 -0.000146511 4.91635e-05
0.00500124 -0.000147203 4.96466e-05
0.00535858 -0.00014764 4.99787e-05
0.00571386 -0.000146295 4.9062e-05
0.00606511 -0.00013837 4.35629e-05
0.00640825 -0.00011432 2.89161e-05
0.00675587 -1.93669e-05 8.16425e-06
0.007 5.35548e-05 -3.7927e-06
0 0 0
0.000365943 0.000102215 1.19514e-20
0.000709767 0.000133058 2.10865e-20
0.00106018 0.00014444 1.24749e-19
0.00141598 0.000147121 1.00204e-19
0.00177384 0.000147137 1.51957e-19
0.00213241 0.00014656 1.78261e-19
0.00249113 0.00014607 3.65929e-20
0.00284984 0.000145779 -1.9763e-19
0.00320851 0.000145649 -3.74753e-19
0.00356717 0.000145637 -4.59928e-19
0.00392585 0.000145744 -6.60498e-19
0.00428457 0.00014602 -1.11843e-18
0.00464333 0.000146543 -1.13595e-18
0.00500204 0.00014731 -2.02123e-18
0.00536026 0.000147912 -2.04468e-18
0.00571683 0.000146826 -2.02738e-18
0.00606839 0.000139131 -2.24577e-18
0.00640989 0.000114487 -2.26842e-18
0.00675583 1.75479e-05 -2.96156e-18
0.007 -5.70145e-05 -2.04786e-18
0 0 0
0.000333124 5.25245e-05 8.85549e-20
0.000691575 8.53868e-05 1.84911e-19
0.00105201 9.59797e-05 1.21677e-19
0.00141287 9.86882e-05 2.58675e-19
0.00177293 9.86402e-05 1.89511e-19
0.00213229 9.80445e-05 2.1039e-19
0.00249122 9.75471e-05 7.95743e-20
0.00284994 9.72551e-05 -3.41642e-20
0.00320855 9.71251e-05 -2.08019e-19
0.00356714 9.71132e-05 -4.79723e-19
0.00392574 9.72191e-05 -7.63856e-19
0.00428441 9.74943e-05 -1.08815e-18
0.00464327 9.80184e-05 -1.29366e-18
0.00500254 9.8795e-05 -1.87628e-18
0.00536253 9.94476e-05 -1.95374e-18
0.00572355 9.83482e-05 -1.75835e-18
0.00608509 9.1192e-05 -1.96146e-18
0.00644667 6.4463e-05 -2.25277e-18
0.00679449 1.15821e-05 -2.52306e-18
0.007 -2.20485e-05 -2.61812e-18
0 0 0
0.000328897 2.33031e-05 5.72811e-20
0.000681041 4.00122e-05 2.03463e-19
0.00104441 4.76424e-05 1.69096e-19
0.0014087 4.9524e-05 1.87862e-19
0.00177105 4.95532e-05 2.6334e-19
0.00213158 4.91769e-05 1.01201e-19
0.00249102 4.88548e-05 1.34919e-19
0.0028499 4.86634e-05 -1.27404e-19
0.00320855 4.85777e-05 -1.9215e-19
0.00356712 4.85698e-05 -4.01335e-19
0.00392573 4.86399e-05 -9.57039e-19
0.00428452 4.88208e-05 -1.08831e-18
0.00464378 4.91618e-05 -1.05845e-18
0.00500408 4.96604e-05 -1.81177e-18
0.00536626 5.00411e-05 -1.72731e-18
0.00573113 4.92152e-05 -1.79696e-18
0.00609748 4.37103e-05 -1.99138e-18
0.00645734 2.87317e-05 -1.9446e-18
0.00679804 7.25875e-06 -2.57798e-18
0.007 -5.52301e-06 -2.27018e-18
0 0 0
0.000327712 1.08066e-20 -7.50785e-21
0.000678696 1.06418e-19 1.49482e-19
0.00104162 1.68101e-19 1.54901e-19
0.00140697 6.52662e-20 3.4398e-19
0.00177017 9.94271e-20 1.05112e-19
0.00213122 2.48157e-19 1.79307e-19
0.00249089 3.94009e-20 3.47824e-20
0.00284987 2.30342e-19 -1.79448e-19
0.00320854 -4.72218e-20 -2.28177e-19
0.00356712 2.98028e-19 -5.37731e-19
0.00392574 4.29387e-19 -8.4547e-19
0.0042846 3.76841e-19 -1.03252e-18
0.00464406 5.15686e-19 -9.24257e-19
0.00500483 6.03149e-19 -1.60623e-18
0.00536791 4.95999e-19 -1.85419e-18
0.00573412 4.68293e-19 -1.63969e-18
0.00610092 7.54546e-19 -1.63867e-18
0.00645928 7.0055e-19 -2.09092e-18
0.00679816 5.69443e-19 -1.98423e-18
0.007 6.5441e-19 -2.47207e-18
0 0 0
0.000328897 -2.33031e-05 4.89613e-20
0.000681041 -4.00122e-05 1.38719e-19
0.00104441 -4.76424e-05 1.93593e-19
0.0014087 -4.9524e-05 1.24054e-19
0.00177105 -4.95532e-05 1.29922e-19
0.00213158 -4.91769e-05 2.18257e-19
0.00249102 -4.88548e-05 -5.17907e-21
0.0028499 -4.86634e-05 -1.53032e-19
0.00320855 -4.85777e-05 -3.19608e-19
0.00356712 -4.85698e-05 -5.33357e-19
0.00392573 -4.86399e-05 -7.72012e-19
0.00428452 -4.88208e-05 -1.01154e-18
0.00464378 -4.91618e-05 -9.39328e-19
0.00500408 -4.96604e-05 -1.5557e-18
0.00536626 -5.00411e-05 -1.76138e-18
0.00573113 -4.92152e-05 -1.50818e-18
0.00609748 -4.37103e-05 -1.58617e-18
0.00645734 -2.87317e-05 -1.76335e-18
0.00679804 -7.25875e-06 -2.13511e-18
0.007 5.52301e-06 -2.03492e-18
0 0 0
0.000333124 -5.25245e-05 5.42429e-20
0.000691575 -8.53868e-05 1.4536e-19
0.00105201 -9.59797e-05 1.01454e-19
0.00141287 -9.86882e-05 2.23639e-19
0.00177293 -9.86402e-05 1.62709e-19
0.00213229 -9.80445e-05 1.35866e-19
0.00249122 -9.75471e-05 -3.70969e-20
0.00284994 -9.72551e-05 -3.35872e-20
0.00320855 -9.71251e-05 -2.65834e-19
0.00356714 -9.71132e-05 -4.30077e-19
0.00392574 -9.72191e-05 -6.23713e-19
0.00428441 -9.74943e-05 -1.0469e-18
0.00464327 -9.80184e-05 -8.61882e-19
0.00500254 -9.8795e-05 -1.47767e-18
0.00536253 -9.94476e-05 -1.62167e-18
0.00572355 -9.83482e-05 -1.33353e-18
0.00608509 -9.1192e-05 -1.62176e-18
0.00644667 -6.4463e-05 -1.60205e-18
0.00679449 -1.15821e-05 -2.12272e-18
0.007 2.20485e-05 -2.31536e-18
0 0 0
0.000365943 -0.000102215 -4.16466e-20
0.000709767 -0.000133058 5.52202e-20
0.00106018 -0.00014444 8.41382e-20
0.00141598 -0.000147121 3.26452e-19
0.00177384 -0.000147137 2.61546e-19
0.00213241 -0.00014656 8.74116e-20
0.00249113 -0.00014607 1.41537e-19
0.00284984 -0.000145779 -5.89797e-20
0.00320851 -0.000145649 -1.03305e-19
0.00356717 -0.000145637 -4.88215e-19
0.00392585 -0.000145744 -7.331e-19
0.00428457 -0.00014602 -9.5594e-19
0.00464333 -0.000146543 -7.65535e-19
0.00500204 -0.00014731 -1.26156e-18
0.00536026 -0.000147912 -1.53398e-18
0.00571683 -0.000146826 -1.3745e-18
0.00606839 -0.000139131 -1.34961e-18
0.00640989 -0.000114487 -1.74778e-18
0.00675583 -1.75479e-05 -1.67281e-18
0.007 5.70145e-05 -2.39101e-18
0 0 0