<?xml version="1.0"?>
<VTKFile type="UnstructuredGrid" version="0.1" byte_order="LittleEndian">
<UnstructuredGrid>
<Piece NumberOfPoints="1029" NumberOfCells="720">
<Points>
<DataArray type="Float32" NumberOfComponents="3" format="ascii">
0 0 0
0.005 0 0
0.01 0 0
0.015 0 0
0.02 0 0
0.025 0 0
0.03 0 0
0.035 0 0
0.04 0 0
0.045 0 0
0.05 0 0
0.055 0 0
0.06 0 0
0.065 0 0
0.07 0 0
0.075 0 0
0.08 0 0
0.085 0 0
0.09 0 0
0.095 0 0
0.1 0 0
0 0.005 0
0.005 0.005 0
0.01 0.005 0
0.015 0.005 0
0.02 0.005 0
0.025 0.005 0
0.03 0.005 0
0.035 0.005 0
0.04 0.005 0
0.045 0.005 0
0.05 0.005 0
0.055 0.005 0
0.06 0.005 0
0.065 0.005 0
0.07 0.005 0
0.075 0.005 0
0.08 0.005 0
0.085 0.005 0
0.09 0.005 0
0.095 0.005 0
0.1 0.005 0
0 0.01 0
0.005 0.01 0
0.01 0.01 0
0.015 0.01 0
0.02 0.01 0
0.025 0.01 0
0.03 0.01 0
0.035 0.01 0
0.04 0.01 0
0.045 0.01 0
0.05 0.01 0
0.055 0.01 0
0.06 0.01 0
0.065 0.01 0
0.07 0.01 0
0.075 0.01 0
0.08 0.01 0
0.085 0.01 0
0.09 0.01 0
0.095 0.01 0
0.1 0.01 0
0 0.015 0
0.005 0.015 0
0.01 0.015 0
0.015 0.015 0
0.02 0.015 0
0.025 0.015 0
0.03 0.015 0
0.035 0.015 0
0.04 0.015 0
0.045 0.015 0
0.05 0.015 0
0.055 0.015 0
0.06 0.015 0
0.065 0.015 0
0.07 0.015 0
0.075 0.015 0
0.08 0.015 0
0.085 0.015 0
0.09 0.015 0
0.095 0.015 0
0.1 0.015 0
0 0.02 0
0.005 0.02 0
0.01 0.02 0
0.015 0.02 0
0.02 0.02 0
0.025 0.02 0
0.03 0.02 0
0.035 0.02 0
0.04 0.02 0
0.045 0.02 0
0.05 0.02 0
0.055 0.02 0
0.06 0.02 0
0.065 0.02 0
0.07 0.02 0
0.075 0.02 0
0.08 0.02 0
0.085 0.02 0
0.09 0.02 0
0.095 0.02 0
0.1 0.02 0
0 0.025 0
0.005 0.025 0
0.01 0.025 0
0.015 0.025 0
0.02 0.025 0
0.025 0.025 0
0.03 0.025 0
0.035 0.025 0
0.04 0.025 0
0.045 0.025 0
0.05 0.025 0
0.055 0.025 0
0.06 0.025 0
0.065 0.025 0
0.07 0.025 0
0.075 0.025 0
0.08 0.025 0
0.085 0.025 0
0.09 0.025 0
0.095 0.025 0
0.1 0.025 0
0 0.03 0
0.005 0.03 0
0.01 0.03 0
0.015 0.03 0
0.02 0.03 0
0.025 0.03 0
0.03 0.03 0
0.035 0.03 0
0.04 0.03 0
0.045 0.03 0
0.05 0.03 0
0.055 0.03 0
0.06 0.03 0
0.065 0.03 0
0.07 0.03 0
0.075 0.03 0
0.08 0.03 0
0.085 0.03 0
0.09 0.03 0
0.095 0.03 0
0.1 0.03 0
0 0 0.005
0.005 0 0.005
0.01 0 0.005
0.015 0 0.005
0.02 0 0.005
0.025 0 0.005
0.03 0 0.005
0.035 0 0.005
0.04 0 0.005
0.045 0 0.005
0.05 0 0.005
0.055 0 0.005
0.06 0 0.005
0.065 0 0.005
0.07 0 0.005
0.075 0 0.005
0.08 0 0.005
0.085 0 0.005
0.09 0 0.005
0.095 0 0.005
0.1 0 0.005
0 0.005 0.005
0.005 0.005 0.005
0.01 0.005 0.005
0.015 0.005 0.005
0.02 0.005 0.005
0.025 0.005 0.005
0.03 0.005 0.005
0.035 0.005 0.005
0.04 0.005 0.005
0.045 0.005 0.005
0.05 0.005 0.005
0.055 0.005 0.005
0.06 0.005 0.005
0.065 0.005 0.005
0.07 0.005 0.005
0.075 0.005 0.005
0.08 0.005 0.005
0.085 0.005 0.005
0.09 0.005 0.005
0.095 0.005 0.005
0.1 0.005 0.005
0 0.01 0.005
0.005 0.01 0.005
0.01 0.01 0.005
0.015 0.01 0.005
0.02 0.01 0.005
0.025 0.01 0.005
0.03 0.01 0.005
0.035 0.01 0.005
0.04 0.01 0.005
0.045 0.01 0.005
0.05 0.01 0.005
0.055 0.01 0.005
0.06 0.01 0.005
0.065 0.01 0.005
0.07 0.01 0.005
0.075 0.01 0.005
0.08 0.01 0.005
0.085 0.01 0.005
0.09 0.01 0.005
0.095 0.01 0.005
0.1 0.01 0.005
0 0.015 0.005
0.005 0.015 0.005
0.01 0.015 0.005
0.015 0.015 0.005
0.02 0.015 0.005
0.025 0.015 0.005
0.03 0.015 0.005
0.035 0.015 0.005
0.04 0.015 0.005
0.045 0.015 0.005
0.05 0.015 0.005
0.055 0.015 0.005
0.06 0.015 0.005
0.065 0.015 0.005
0.07 0.015 0.005
0.075 0.015 0.005
0.08 0.015 0.005
0.085 0.015 0.005
0.09 0.015 0.005
0.095 0.015 0.005
0.1 0.015 0.005
0 0.02 0.005
0.005 0.02 0.005
0.01 0.02 0.005
0.015 0.02 0.005
0.02 0.02 0.005
0.025 0.02 0.005
0.03 0.02 0.005
0.035 0.02 0.005
0.04 0.02 0.005
0.045 0.02 0.005
0.05 0.02 0.005
0.055 0.02 0.005
0.06 0.02 0.005
0.065 0.02 0.005
0.07 0.02 0.005
0.075 0.02 0.005
0.08 0.02 0.005
0.085 0.02 0.005
0.09 0.02 0.005
0.095 0.02 0.005
0.1 0.02 0.005
0 0.025 0.005
0.005 0.025 0.005
0.01 0.025 0.005
0.015 0.025 0.005
0.02 0.025 0.005
0.025 0.025 0.005
0.03 0.025 0.005
0.035 0.025 0.005
0.04 0.025 0.005
0.045 0.025 0.005
0.05 0.025 0.005
0.055 0.025 0.005
0.06 0.025 0.005
0.065 0.025 0.005
0.07 0.025 0.005
0.075 0.025 0.005
0.08 0.025 0.005
0.085 0.025 0.005
0.09 0.025 0.005
0.095 0.025 0.005
0.1 0.025 0.005
0 0.03 0.005
0.005 0.03 0.005
0.01 0.03 0.005
0.015 0.03 0.005
0.02 0.03 0.005
0.025 0.03 0.005
0.03 0.03 0.005
0.035 0.03 0.005
0.04 0.03 0.005
0.045 0.03 0.005
0.05 0.03 0.005
0.055 0.03 0.005
0.06 0.03 0.005
0.065 0.03 0.005
0.07 0.03 0.005
0.075 0.03 0.005
0.08 0.03 0.005
0.085 0.03 0.005
0.09 0.03 0.005
0.095 0.03 0.005
0.1 0.03 0.005
0 0 0.01
0.005 0 0.01
0.01 0 0.01
0.015 0 0.01
0.02 0 0.01
0.025 0 0.01
0.03 0 0.01
0.035 0 0.01
0.04 0 0.01
0.045 0 0.01
0.05 0 0.01
0.055 0 0.01
0.06 0 0.01
0.065 0 0.01
0.07 0 0.01
0.075 0 0.01
0.08 0 0.01
0.085 0 0.01
0.09 0 0.01
0.095 0 0.01
0.1 0 0.01
0 0.005 0.01
0.005 0.005 0.01
0.01 0.005 0.01
0.015 0.005 0.01
0.02 0.005 0.01
0.025 0.005 0.01
0.03 0.005 0.01
0.035 0.005 0.01
0.04 0.005 0.01
0.045 0.005 0.01
0.05 0.005 0.01
0.055 0.005 0.01
0.06 0.005 0.01
0.065 0.005 0.01
0.07 0.005 0.01
0.075 0.005 0.01
0.08 0.005 0.01
0.085 0.005 0.01
0.09 0.005 0.01
0.095 0.005 0.01
0.1 0.005 0.01
0 0.01 0.01
0.005 0.01 0.01
0.01 0.01 0.01
0.015 0.01 0.01
0.02 0.01 0.01
0.025 0.01 0.01
0.03 0.01 0.01
0.035 0.01 0.01
0.04 0.01 0.01
0.045 0.01 0.01
0.05 0.01 0.01
0.055 0.01 0.01
0.06 0.01 0.01
0.065 0.01 0.01
0.07 0.01 0.01
0.075 0.01 0.01
0.08 0.01 0.01
0.085 0.01 0.01
0.09 0.01 0.01
0.095 0.01 0.01
0.1 0.01 0.01
0 0.015 0.01
0.005 0.015 0.01
0.01 0.015 0.01
0.015 0.015 0.01
0.02 0.015 0.01
0.025 0.015 0.01
0.03 0.015 0.01
0.035 0.015 0.01
0.04 0.015 0.01
0.045 0.015 0.01
0.05 0.015 0.01
0.055 0.015 0.01
0.06 0.015 0.01
0.065 0.015 0.01
0.07 0.015 0.01
0.075 0.015 0.01
0.08 0.015 0.01
0.085 0.015 0.01
0.09 0.015 0.01
0.095 0.015 0.01
0.1 0.015 0.01
0 0.02 0.01
0.005 0.02 0.01
0.01 0.02 0.01
0.015 0.02 0.01
0.02 0.02 0.01
0.025 0.02 0.01
0.03 0.02 0.01
0.035 0.02 0.01
0.04 0.02 0.01
0.045 0.02 0.01
0.05 0.02 0.01
0.055 0.02 0.01
0.06 0.02 0.01
0.065 0.02 0.01
0.07 0.02 0.01
0.075 0.02 0.01
0.08 0.02 0.01
0.085 0.02 0.01
0.09 0.02 0.01
0.095 0.02 0.01
0.1 0.02 0.01
0 0.025 0.01
0.005 0.025 0.01
0.01 0.025 0.01
0.015 0.025 0.01
0.02 0.025 0.01
0.025 0.025 0.01
0.03 0.025 0.01
0.035 0.025 0.01
0.04 0.025 0.01
0.045 0.025 0.01
0.05 0.025 0.01
0.055 0.025 0.01
0.06 0.025 0.01
0.065 0.025 0.01
0.07 0.025 0.01
0.075 0.025 0.01
0.08 0.025 0.01
0.085 0.025 0.01
0.09 0.025 0.01
0.095 0.025 0.01
0.1 0.025 0.01
0 0.03 0.01
0.005 0.03 0.01
0.01 0.03 0.01
0.015 0.03 0.01
0.02 0.03 0.01
0.025 0.03 0.01
0.03 0.03 0.01
0.035 0.03 0.01
0.04 0.03 0.01
0.045 0.03 0.01
0.05 0.03 0.01
0.055 0.03 0.01
0.06 0.03 0.01
0.065 0.03 0.01
0.07 0.03 0.01
0.075 0.03 0.01
0.08 0.03 0.01
0.085 0.03 0.01
0.09 0.03 0.01
0.095 0.03 0.01
0.1 0.03 0.01
0 0 0.015
0.005 0 0.015
0.01 0 0.015
0.015 0 0.015
0.02 0 0.015
0.025 0 0.015
0.03 0 0.015
0.035 0 0.015
0.04 0 0.015
0.045 0 0.015
0.05 0 0.015
0.055 0 0.015
0.06 0 0.015
0.065 0 0.015
0.07 0 0.015
0.075 0 0.015
0.08 0 0.015
0.085 0 0.015
0.09 0 0.015
0.095 0 0.015
0.1 0 0.015
0 0.005 0.015
0.005 0.005 0.015
0.01 0.005 0.015
0.015 0.005 0.015
0.02 0.005 0.015
0.025 0.005 0.015
0.03 0.005 0.015
0.035 0.005 0.015
0.04 0.005 0.015
0.045 0.005 0.015
0.05 0.005 0.015
0.055 0.005 0.015
0.06 0.005 0.015
0.065 0.005 0.015
0.07 0.005 0.015
0.075 0.005 0.015
0.08 0.005 0.015
0.085 0.005 0.015
0.09 0.005 0.015
0.095 0.005 0.015
0.1 0.005 0.015
0 0.01 0.015
0.005 0.01 0.015
0.01 0.01 0.015
0.015 0.01 0.015
0.02 0.01 0.015
0.025 0.01 0.015
0.03 0.01 0.015
0.035 0.01 0.015
0.04 0.01 0.015
0.045 0.01 0.015
0.05 0.01 0.015
0.055 0.01 0.015
0.06 0.01 0.015
0.065 0.01 0.015
0.07 0.01 0.015
0.075 0.01 0.015
0.08 0.01 0.015
0.085 0.01 0.015
0.09 0.01 0.015
0.095 0.01 0.015
0.1 0.01 0.015
0 0.015 0.015
0.005 0.015 0.015
0.01 0.015 0.015
0.015 0.015 0.015
0.02 0.015 0.015
0.025 0.015 0.015
0.03 0.015 0.015
0.035 0.015 0.015
0.04 0.015 0.015
0.045 0.015 0.015
0.05 0.015 0.015
0.055 0.015 0.015
0.06 0.015 0.015
0.065 0.015 0.015
0.07 0.015 0.015
0.075 0.015 0.015
0.08 0.015 0.015
0.085 0.015 0.015
0.09 0.015 0.015
0.095 0.015 0.015
0.1 0.015 0.015
0 0.02 0.015
0.005 0.02 0.015
0.01 0.02 0.015
0.015 0.02 0.015
0.02 0.02 0.015
0.025 0.02 0.015
0.03 0.02 0.015
0.035 0.02 0.015
0.04 0.02 0.015
0.045 0.02 0.015
0.05 0.02 0.015
0.055 0.02 0.015
0.06 0.02 0.015
0.065 0.02 0.015
0.07 0.02 0.015
0.075 0.02 0.015
0.08 0.02 0.015
0.085 0.02 0.015
0.09 0.02 0.015
0.095 0.02 0.015
0.1 0.02 0.015
0 0.025 0.015
0.005 0.025 0.015
0.01 0.025 0.015
0.015 0.025 0.015
0.02 0.025 0.015
0.025 0.025 0.015
0.03 0.025 0.015
0.035 0.025 0.015
0.04 0.025 0.015
0.045 0.025 0.015
0.05 0.025 0.015
0.055 0.025 0.015
0.06 0.025 0.015
0.065 0.025 0.015
0.07 0.025 0.015
0.075 0.025 0.015
0.08 0.025 0.015
0.085 0.025 0.015
0.09 0.025 0.015
0.095 0.025 0.015
0.1 0.025 0.015
0 0.03 0.015
0.005 0.03 0.015
0.01 0.03 0.015
0.015 0.03 0.015
0.02 0.03 0.015
0.025 0.03 0.015
0.03 0.03 0.015
0.035 0.03 0.015
0.04 0.03 0.015
0.045 0.03 0.015
0.05 0.03 0.015
0.055 0.03 0.015
0.06 0.03 0.015
0.065 0.03 0.015
0.07 0.03 0.015
0.075 0.03 0.015
0.08 0.03 0.015
0.085 0.03 0.015
0.09 0.03 0.015
0.095 0.03 0.015
0.1 0.03 0.015
0 0 0.02
0.005 0 0.02
0.01 0 0.02
0.015 0 0.02
0.02 0 0.02
0.025 0 0.02
0.03 0 0.02
0.035 0 0.02
0.04 0 0.02
0.045 0 0.02
0.05 0 0.02
0.055 0 0.02
0.06 0 0.02
0.065 0 0.02
0.07 0 0.02
0.075 0 0.02
0.08 0 0.02
0.085 0 0.02
0.09 0 0.02
0.095 0 0.02
0.1 0 0.02
0 0.005 0.02
0.005 0.005 0.02
0.01 0.005 0.02
0.015 0.005 0.02
0.02 0.005 0.02
0.025 0.005 0.02
0.03 0.005 0.02
0.035 0.005 0.02
0.04 0.005 0.02
0.045 0.005 0.02
0.05 0.005 0.02
0.055 0.005 0.02
0.06 0.005 0.02
0.065 0.005 0.02
0.07 0.005 0.02
0.075 0.005 0.02
0.08 0.005 0.02
0.085 0.005 0.02
0.09 0.005 0.02
0.095 0.005 0.02
0.1 0.005 0.02
0 0.01 0.02
0.005 0.01 0.02
0.01 0.01 0.02
0.015 0.01 0.02
0.02 0.01 0.02
0.025 0.01 0.02
0.03 0.01 0.02
0.035 0.01 0.02
0.04 0.01 0.02
0.045 0.01 0.02
0.05 0.01 0.02
0.055 0.01 0.02
0.06 0.01 0.02
0.065 0.01 0.02
0.07 0.01 0.02
0.075 0.01 0.02
0.08 0.01 0.02
0.085 0.01 0.02
0.09 0.01 0.02
0.095 0.01 0.02
[...]
<PointData Vectors="Displacement">
<DataArray type="Float32" Name="Displacement" NumberOfComponents="3" format="ascii">
0 0 0
0.000947839 0.00026728 0.00026728
0.00174972 0.000333227 0.000333227
0.00256101 0.000363062 0.000363062
0.00339366 0.000371142 0.000371142
0.00424098 0.000372691 0.000372691
0.00509622 0.000372283 0.000372283
0.00595501 0.000371696 0.000371696
0.00681515 0.000371305 0.000371305
0.00767568 0.000371113 0.000371113
0.0085363 0.000371052 0.000371052
0.00939689 0.000371083 0.000371083
0.0102574 0.000371204 0.000371204
0.0111175 0.000371426 0.000371426
0.0119766 0.000371684 0.000371684
0.0128334 0.000371567 0.000371567
0.0136855 0.000369851 0.000369851
0.0145297 0.000362577 0.000362577
0.0153646 0.000344115 0.000344115
0.0162161 0.000272463 0.000272463
0.017 0.000218734 0.000218734
0 0 0
0.000872742 0.000141056 0.000268609
0.0017097 0.000219949 0.000337779
0.00254268 0.000243387 0.000364554
0.00338653 0.000249632 0.000371824
0.0042387 0.00024981 0.00037289
0.00509575 0.000248868 0.000372325
0.00595506 0.000248078 0.000371689
0.00681526 0.000247633 0.000371293
0.00767576 0.000247433 0.000371103
0.00853631 0.000247374 0.000371045
0.00939686 0.000247409 0.000371076
0.0102573 0.000247544 0.000371198
0.0111175 0.000247816 0.000371431
0.0119771 0.00024822 0.000371729
0.0128352 0.000248491 0.000371741
0.0136905 0.000247422 0.0003703
0.0145416 0.00024192 0.000363827
0.0153903 0.000221655 0.00034621
0.0162427 0.000180131 0.000270005
0.017 0.00015379 0.000210922
0 0 0
0.000861864 6.38142e-05 0.000275441
0.00168374 0.000105567 0.000343473
0.00252529 0.000122302 0.000368155
0.0033774 0.000125716 0.000373354
0.00423477 0.000125551 0.000373455
0.00509433 0.000124763 0.000372478
0.00595467 0.000124181 0.000371706
0.00681521 0.000123867 0.000371277
0.00767578 0.00012373 0.000371086
0.00853633 0.000123692 0.000371031
0.00939687 0.000123716 0.000371065
0.0102574 0.00012381 0.000371195
0.0111179 0.000124006 0.000371461
0.0119782 0.000124318 0.000371871
0.0128379 0.000124589 0.000372167
0.0136961 0.000124095 0.000371369
0.0145508 0.000120182 0.000365776
0.015398 0.000108368 0.00034822
0.0162451 9.02521e-05 0.000266412
0.017 7.95195e-05 0.000201114
0 0 0
0.000859053 -5.45962e-20 0.000277419
0.00167759 5.18743e-20 0.000346128
0.00251847 -3.31318e-20 0.00036968
0.00337353 2.13723e-19 0.000374134
0.00423294 2.93724e-19 0.000373746
0.00509362 2.14484e-19 0.000372568
0.00595444 1.99907e-19 0.000371722
0.00681516 2.46147e-19 0.000371272
0.00767578 6.72528e-20 0.000371079
0.00853634 4.69992e-19 0.000371025
0.00939689 2.82597e-19 0.00037106
0.0102575 1.24331e-19 0.000371196
0.0111181 -1.48912e-19 0.00037148
0.0119787 1.7973e-19 0.000371947
0.0128391 -1.47721e-19 0.000372389
0.0136983 -6.76676e-20 0.000371852
0.0145535 2.96952e-19 0.000366595
0.0153993 -5.6306e-19 0.000348606
0.0162449 -3.68183e-19 0.000264854
0.017 6.0172e-19 0.000197911
0 0 0
0.000861864 -6.38142e-05 0.000275441
0.00168374 -0.000105567 0.000343473
0.00252529 -0.000122302 0.000368155
0.0033774 -0.000125716 0.000373354
0.00423477 -0.000125551 0.000373455
0.00509433 -0.000124763 0.000372478
0.00595467 -0.000124181 0.000371706
0.00681521 -0.000123867 0.000371277
0.00767578 -0.00012373 0.000371086
0.00853633 -0.000123692 0.000371031
0.00939687 -0.000123716 0.000371065
0.0102574 -0.00012381 0.000371195
0.0111179 -0.000124006 0.000371461
0.0119782 -0.000124318 0.000371871
0.0128379 -0.000124589 0.000372167
0.0136961 -0.000124095 0.000371369
0.0145508 -0.000120182 0.000365776
0.015398 -0.000108368 0.00034822
0.0162451 -9.02521e-05 0.000266412
0.017 -7.95195e-05 0.000201114
0 0 0
0.000872742 -0.000141056 0.000268609
0.0017097 -0.000219949 0.000337779
0.00254268 -0.000243387 0.000364554
0.00338653 -0.000249632 0.000371824
0.0042387 -0.00024981 0.00037289
0.00509575 -0.000248868 0.000372325
0.00595506 -0.000248078 0.000371689
0.00681526 -0.000247633 0.000371293
0.00767576 -0.000247433 0.000371103
0.00853631 -0.000247374 0.000371045
0.00939686 -0.000247409 0.000371076
0.0102573 -0.000247544 0.000371198
0.0111175 -0.000247816 0.000371431
0.0119771 -0.00024822 0.000371729
0.0128352 -0.000248491 0.000371741
0.0136905 -0.000247422 0.0003703
0.0145416 -0.00024192 0.000363827
0.0153903 -0.000221655 0.00034621
0.0162427 -0.000180131 0.000270005
0.017 -0.00015379 0.000210922
0 0 0
0.000947839 -0.00026728 0.00026728
0.00174972 -0.000333227 0.000333227
0.00256101 -0.000363062 0.000363062
0.00339366 -0.000371142 0.000371142
0.00424098 -0.000372691 0.000372691
0.00509622 -0.000372283 0.000372283
0.00595501 -0.000371696 0.000371696
0.00681515 -0.000371305 0.000371305
0.00767568 -0.000371113 0.000371113
0.0085363 -0.000371052 0.000371052
0.00939689 -0.000371083 0.000371083
0.0102574 -0.000371204 0.000371204
0.0111175 -0.000371426 0.000371426
0.0119766 -0.000371684 0.000371684
0.0128334 -0.000371567 0.000371567
0.0136855 -0.000369851 0.000369851
0.0145297 -0.000362577 0.000362577
0.0153646 -0.000344115 0.000344115
0.0162161 -0.000272463 0.000272463
0.017 -0.000218734 0.000218734
0 0 0
0.000872742 0.000268609 0.000141056
0.0017097 0.000337779 0.000219949
0.00254268 0.000364554 0.000243387
0.00338653 0.000371824 0.000249632
0.0042387 0.00037289 0.00024981
0.00509575 0.000372325 0.000248868
0.00595506 0.000371689 0.000248078
0.00681526 0.000371293 0.000247633
0.00767576 0.000371103 0.000247433
0.00853631 0.000371045 0.000247374
0.00939686 0.000371076 0.000247409
0.0102573 0.000371198 0.000247544
0.0111175 0.000371431 0.000247816
0.0119771 0.000371729 0.00024822
0.0128352 0.000371741 0.000248491
0.0136905 0.0003703 0.000247422
0.0145416 0.000363827 0.00024192
0.0153903 0.00034621 0.000221655
0.0162427 0.000270005 0.000180131
0.017 0.000210922 0.00015379
0 0 0
0.000795411 0.000140353 0.000140353
0.00166994 0.000219497 0.000219497
0.0025254 0.000243144 0.000243144
0.00337989 0.000249449 0.000249449
0.00423667 0.000249734 0.000249734
0.00509537 0.000248836 0.000248836
0.00595514 0.000248068 0.000248068
0.00681539 0.000247631 0.000247631
0.00767583 0.000247433 0.000247433
0.00853633 0.000247375 0.000247375
0.00939683 0.000247409 0.000247409
0.0102573 0.000247542 0.000247542
0.0111176 0.000247808 0.000247808
0.0119776 0.000248198 0.000248198
0.0128369 0.000248441 0.000248441
0.0136953 0.000247341 0.000247341
0.0145533 0.000241877 0.000241877
0.015417 0.000221625 0.000221625
0.0162713 0.000179947 0.000179947
0.017 0.000153161 0.000153161
0 0 0
0.000784071 6.24184e-05 0.000143168
0.00164419 0.000104209 0.000222915
0.00250858 0.00012144 0.0002452
0.0033713 0.00012529 0.000250375
0.00423302 0.000125373 0.00025006
0.00509407 0.000124704 0.000248923
0.00595479 0.000124167 0.000248075
0.00681535 0.000123867 0.00024762
0.00767586 0.000123734 0.000247422
0.00853635 0.000123695 0.000247366
0.00939684 0.000123718 0.000247402
0.0102573 0.000123809 0.000247539
0.0111179 0.000123992 0.000247824
0.0119785 0.000124271 0.00024828
0.0128394 0.000124467 0.000248702
0.0137006 0.000123844 0.00024798
0.0145626 0.000119789 0.000243037
0.0154257 0.000108136 0.000222359
0.0162747 9.07859e-05 0.000177586
0.017 8.05432e-05 0.000147881
0 0 0
0.000780891 -3.76413e-20 0.000144532
0.00163812 -1.79034e-20 0.000224489
0.00250206 9.20357e-20 0.000246272
0.00336765 2.3677e-19 0.000250888
0.00423132 6.63002e-20 0.000250257
0.00509341 3.35083e-19 0.00024898
0.00595458 2.80116e-19 0.000248084
0.0068153 3.47187e-19 0.000247616
0.00767586 6.79834e-20 0.000247417
0.00853635 5.54173e-19 0.000247362
0.00939685 3.55389e-19 0.000247399
0.0102574 1.31821e-20 0.000247539
0.0111181 4.29294e-19 0.000247837
0.011979 2.42243e-19 0.000248332
0.0128405 -1.56169e-20 0.000248851
0.0137028 -1.91648e-19 0.000248318
0.0145653 -6.24989e-20 0.00024355
0.0154274 -2.23512e-19 0.000222521
0.016275 -5.46866e-20 0.000176507
0.017 2.1644e-19 0.000145794
0 0 0
0.000784071 -6.24184e-05 0.000143168
0.00164419 -0.000104209 0.000222915
0.00250858 -0.00012144 0.0002452
0.0033713 -0.00012529 0.000250375
0.00423302 -0.000125373 0.00025006
0.00509407 -0.000124704 0.000248923
0.00595479 -0.000124167 0.000248075
0.00681535 -0.000123867 0.00024762
0.00767586 -0.000123734 0.000247422
0.00853635 -0.000123695 0.000247366
0.00939684 -0.000123718 0.000247402
0.0102573 -0.000123809 0.000247539
0.0111179 -0.000123992 0.000247824
0.0119785 -0.000124271 0.00024828
0.0128394 -0.000124467 0.000248702
0.0137006 -0.000123844 0.00024798
0.0145626 -0.000119789 0.000243037
0.0154257 -0.000108136 0.000222359
0.0162747 -9.07859e-05 0.000177586
0.017 -8.05432e-05 0.000147881
0 0 0
0.000795411 -0.000140353 0.000140353
0.00166994 -0.000219497 0.000219497
0.0025254 -0.000243144 0.000243144
0.00337989 -0.000249449 0.000249449
0.00423667 -0.000249734 0.000249734
0.00509537 -0.000248836 0.000248836
0.00595514 -0.000248068 0.000248068
0.00681539 -0.000247631 0.000247631
0.00767583 -0.000247433 0.000247433
0.00853633 -0.000247375 0.000247375
0.00939683 -0.000247409 0.000247409
0.0102573 -0.000247542 0.000247542
0.0111176 -0.000247808 0.000247808
0.0119776 -0.000248198 0.000248198
0.0128369 -0.000248441 0.000248441
0.0136953 -0.000247341 0.000247341
0.0145533 -0.000241877 0.000241877
0.015417 -0.000221625 0.000221625
0.0162713 -0.000179947 0.000179947
0.017 -0.000153161 0.000153161
0 0 0
0.000872742 -0.000268609 0.000141056
0.0017097 -0.000337779 0.000219949
0.00254268 -0.000364554 0.000243387
0.00338653 -0.000371824 0.000249632
0.0042387 -0.00037289 0.00024981
0.00509575 -0.000372325 0.000248868
0.00595506 -0.000371689 0.000248078
0.00681526 -0.000371293 0.000247633
0.00767576 -0.000371103 0.000247433
0.00853631 -0.000371045 0.000247374
0.00939686 -0.000371076 0.000247409
0.0102573 -0.000371198 0.000247544
0.0111175 -0.000371431 0.000247816
0.0119771 -0.000371729 0.00024822
0.0128352 -0.000371741 0.000248491
0.0136905 -0.0003703 0.000247422
0.0145416 -0.000363827 0.00024192
0.0153903 -0.00034621 0.000221655
0.0162427 -0.000270005 0.000180131
0.017 -0.000210922 0.00015379
0 0 0
0.000861864 0.000275441 6.38142e-05
0.00168374 0.000343473 0.000105567
0.00252529 0.000368155 0.000122302
0.0033774 0.000373354 0.000125716
0.00423477 0.000373455 0.000125551
0.00509433 0.000372478 0.000124763
0.00595467 0.000371706 0.000124181
0.00681521 0.000371277 0.000123867
0.00767578 0.000371086 0.00012373
0.00853633 0.000371031 0.000123692
0.00939687 0.000371065 0.000123716
0.0102574 0.000371195 0.00012381
0.0111179 0.000371461 0.000124006
0.0119782 0.000371871 0.000124318
0.0128379 0.000372167 0.000124589
0.0136961 0.000371369 0.000124095
0.0145508 0.000365776 0.000120182
0.015398 0.00034822 0.000108368
0.0162451 0.000266412 9.02521e-05
0.017 0.000201114 7.95195e-05
0 0 0
0.000784071 0.000143168 6.24184e-05
0.00164419 0.000222915 0.000104209
0.00250858 0.0002452 0.00012144
0.0033713 0.000250375 0.00012529
0.00423302 0.00025006 0.000125373
0.00509407 0.000248923 0.000124704
0.00595479 0.000248075 0.000124167
0.00681535 0.00024762 0.000123867
0.00767586 0.000247422 0.000123734
0.00853635 0.000247366 0.000123695
0.00939684 0.000247402 0.000123718
0.0102573 0.000247539 0.000123809
0.0111179 0.000247824 0.000123992
0.0119785 0.00024828 0.000124271
0.0128394 0.000248702 0.000124467
0.0137006 0.00024798 0.000123844
0.0145626 0.000243037 0.000119789
0.0154257 0.000222359 0.000108136
0.0162747 0.000177586 9.07859e-05
0.017 0.000147881 8.05432e-05
0 0 0
0.000773261 6.35242e-05 6.35242e-05
0.00161807 0.000105449 0.000105449
0.00249155 0.000122298 0.000122298
0.00336268 0.00012569 0.00012569
0.00422942 0.000125516 0.000125516
0.00509282 0.000124741 0.000124741
0.00595446 0.00012417 0.00012417
0.00681532 0.000123862 0.000123862
0.00767588 0.000123729 0.000123729
0.00853636 0.000123691 0.000123691
0.00939685 0.000123715 0.000123715
0.0102574 0.000123807 0.000123807
0.0111182 0.000123999 0.000123999
0.0119795 0.000124308 0.000124308
0.0128419 0.000124584 0.000124584
0.013706 0.000124125 0.000124125
0.0145722 0.000120211 0.000120211
0.0154342 0.000108265 0.000108265
0.0162772 8.98346e-05 8.98346e-05
0.017 7.85604e-05 7.85604e-05
0 0 0
0.000770238 1.78627e-20 6.40773e-05
0.00161198 1.00786e-19 0.000106146
0.0024849 1.94968e-19 0.000122784
0.003359 1.83602e-19 0.000125934
0.00422772 3.07565e-19 0.00012561
0.00509217 2.96651e-19 0.000124769
0.00595426 4.20167e-19 0.000124174
0.00681528 5.39684e-19 0.00012386
0.00767589 1.22623e-19 0.000123726
0.00853637 5.5403e-19 0.000123689
0.00939686 5.7863e-19 0.000123714
0.0102575 1.56685e-19 0.000123807
0.0111184 4.54999e-19 0.000124005
0.01198 3.42656e-19 0.000124333
0.012843 1.13106e-19 0.000124656
0.0137083 -3.29038e-20 0.000124282
0.014575 1.09837e-19 0.000120427
0.0154358 4.58446e-20 0.000108294
0.0162772 7.42147e-20 8.93358e-05
0.017 -1.04713e-19 7.76183e-05
0 0 0
0.000773261 -6.35242e-05 6.35242e-05
0.00161807 -0.000105449 0.000105449
0.00249155 -0.000122298 0.000122298
0.00336268 -0.00012569 0.00012569
0.00422942 -0.000125516 0.000125516
0.00509282 -0.000124741 0.000124741
0.00595446 -0.00012417 0.00012417
0.00681532 -0.000123862 0.000123862
0.00767588 -0.000123729 0.000123729
0.00853636 -0.000123691 0.000123691
0.00939685 -0.000123715 0.000123715
0.0102574 -0.000123807 0.000123807
0.0111182 -0.000123999 0.000123999
0.0119795 -0.000124308 0.000124308
0.0128419 -0.000124584 0.000124584
0.013706 -0.000124125 0.000124125
0.0145722 -0.000120211 0.000120211
0.0154342 -0.000108265 0.000108265
0.0162772 -8.98346e-05 8.98346e-05
0.017 -7.85604e-05 7.85604e-05
0 0 0
0.000784071 -0.000143168 6.24184e-05
0.00164419 -0.000222915 0.000104209
0.00250858 -0.0002452 0.00012144
0.0033713 -0.000250375 0.00012529
0.00423302 -0.00025006 0.000125373
0.00509407 -0.000248923 0.000124704
0.00595479 -0.000248075 0.000124167
0.00681535 -0.00024762 0.000123867
0.00767586 -0.000247422 0.000123734
0.00853635 -0.000247366 0.000123695
0.00939684 -0.000247402 0.000123718
0.0102573 -0.000247539 0.000123809
0.0111179 -0.000247824 0.000123992
0.0119785 -0.00024828 0.000124271
0.0128394 -0.000248702 0.000124467
0.0137006 -0.00024798 0.000123844
0.0145626 -0.000243037 0.000119789
0.0154257 -0.000222359 0.000108136
0.0162747 -0.000177586 9.07859e-05
0.017 -0.000147881 8.05432e-05
0 0 0
0.000861864 -0.000275441 6.38142e-05
0.00168374 -0.000343473 0.000105567
0.00252529 -0.000368155 0.000122302
0.0033774 -0.000373354 0.000125716
0.00423477 -0.000373455 0.000125551
0.00509433 -0.000372478 0.000124763
0.00595467 -0.000371706 0.000124181
0.00681521 -0.000371277 0.000123867
0.00767578 -0.000371086 0.00012373
0.00853633 -0.000371031 0.000123692
0.00939687 -0.000371065 0.000123716
0.0102574 -0.000371195 0.00012381
0.0111179 -0.000371461 0.000124006
0.0119782 -0.000371871 0.000124318
0.0128379 -0.000372167 0.000124589
0.0136961 -0.000371369 0.000124095
0.0145508 -0.000365776 0.000120182
0.015398 -0.00034822 0.000108368
0.0162451 -0.000266412 9.02521e-05
0.017 -0.000201114 7.95195e-05
0 0 0
0.000859053 0.000277419 4.00908e-21
0.00167759 0.000346128 1.54336e-19
0.00251847 0.00036968 4.69137e-19
0.00337353 0.000374134 3.37864e-19
0.00423294 0.000373746 5.18517e-19
0.00509362 0.000372568 8.11152e-19
0.00595444 0.000371722 1.22259e-18
0.00681516 0.000371272 1.40579e-18
0.00767578 0.000371079 1.19535e-18
0.00853634 0.000371025 1.67927e-18
0.00939689 0.00037106 1.82117e-18
0.0102575 0.000371196 1.96808e-18
0.0111181 0.00037148 2.35425e-18
0.0119787 0.000371947 1.44627e-18
0.0128391 0.000372389 2.08372e-18
0.0136983 0.000371852 2.17438e-18
0.0145535 0.000366595 2.0369e-18
0.0153993 0.000348606 2.19577e-18
0.0162449 0.000264854 1.73441e-18
0.017 0.000197911 2.42579e-18
0 0 0
0.000780891 0.000144532 1.81344e-19
0.00163812 0.000224489 2.05575e-19
0.00250206 0.000246272 2.76307e-19
0.00336765 0.000250888 5.42909e-19
0.00423132 0.000250257 6.1198e-19
0.00509341 0.00024898 7.13472e-19
0.00595458 0.000248084 1.1628e-18
0.0068153 0.000247616 1.15488e-18
0.00767586 0.000247417 1.26883e-18
0.00853635 0.000247362 1.86474e-18
0.00939685 0.000247399 1.77923e-18
0.0102574 0.000247539 1.7941e-18
0.0111181 0.000247837 2.33592e-18
0.011979 0.000248332 1.74381e-18
0.0128405 0.000248851 1.99888e-18
0.0137028 0.000248318 2.39466e-18
0.0145653 0.00024355 2.21213e-18
0.0154274 0.000222521 1.98728e-18
0.016275 0.000176507 1.95568e-18
0.017 0.000145794 1.60921e-18
0 0 0
0.000770238 6.40773e-05 6.20096e-20
0.00161198 0.000106146 1.86286e-19
0.0024849 0.000122784 3.0319e-19
0.003359 0.000125934 3.85206e-19
0.00422772 0.00012561 5.12712e-19
0.00509217 0.000124769 7.28526e-19
0.00595426 0.000124174 1.03441e-18
0.00681528 0.00012386 1.20741e-18
0.00767589 0.000123726 1.40473e-18
0.00853637 0.000123689 1.64922e-18
0.00939686 0.000123714 1.60389e-18
0.0102575 0.000123807 1.58574e-18
0.0111184 0.000124005 2.27519e-18
0.01198 0.000124333 1.61372e-18
0.012843 0.000124656 1.8116e-18
0.0137083 0.000124282 2.33008e-18
0.014575 0.000120427 1.94206e-18
0.0154358 0.000108294 2.16949e-18
0.0162772 8.93358e-05 1.71086e-18
0.017 7.76183e-05 1.61523e-18
0 0 0
0.000767248 -2.31675e-20 8.84642e-20
0.00160587 4.95599e-20 1.00173e-19
0.00247819 2.29416e-19 2.21798e-19
0.00335529 2.84278e-19 3.877e-19
0.00422602 2.31623e-19 4.96212e-19
0.00509152 3.63736e-19 5.82459e-19
0.00595406 3.76651e-19 9.25384e-19
0.00681524 3.96355e-19 1.04605e-18
0.00767589 2.74343e-19 1.22833e-18
0.00853638 6.1092e-19 1.76476e-18
0.00939687 4.58355e-19 1.54555e-18
0.0102575 2.45289e-19 1.40827e-18
0.0111185 3.90796e-19 2.06951e-18
0.0119805 5.20527e-19 1.57132e-18
0.0128442 2.29634e-19 1.72808e-18
0.0137106 -1.76139e-19 2.20373e-18
0.0145778 1.70801e-19 2.01454e-18
0.0154373 3.21539e-19 2.1035e-18
0.0162771 5.34937e-20 1.86677e-18
0.017 -1.21263e-19 1.37071e-18
0 0 0
0.000770238 -6.40773e-05 -1.20421e-20
0.00161198 -0.000106146 1.09063e-19
0.0024849 -0.000122784 2.02004e-19
0.003359 -0.000125934 3.81896e-19
0.00422772 -0.00012561 4.021e-19
0.00509217 -0.000124769 5.79876e-19
0.00595426 -0.000124174 7.79067e-19
0.00681528 -0.00012386 1.08585e-18
0.00767589 -0.000123726 1.07405e-18
0.00853637 -0.000123689 1.40971e-18
0.00939686 -0.000123714 1.24876e-18
0.0102575 -0.000123807 1.347e-18
0.0111184 -0.000124005 2.01377e-18
0.01198 -0.000124333 1.37254e-18
0.012843 -0.000124656 1.63021e-18
0.0137083 -0.000124282 2.19862e-18
0.014575 -0.000120427 2.00883e-18
0.0154358 -0.000108294 1.96533e-18
0.0162772 -8.93358e-05 1.59888e-18
0.017 -7.76183e-05 1.25775e-18
0 0 0
0.000780891 -0.000144532 7.91279e-21
0.00163812 -0.000224489 6.98957e-20
0.00250206 -0.000246272 1.17601e-19
0.00336765 -0.000250888 1.35946e-19
0.00423132 -0.000250257 2.02839e-19
0.00509341 -0.00024898 4.36263e-19
0.00595458 -0.000248084 6.35003e-19
0.0068153 -0.000247616 8.51546e-19
0.00767586 -0.000247417 1.18566e-18
0.00853635 -0.000247362 1.21265e-18
0.00939685 -0.000247399 1.27723e-18
0.0102574 -0.000247539 1.09789e-18
0.0111181 -0.000247837 1.80618e-18
0.011979 -0.000248332 1.12397e-18
0.0128405 -0.000248851 1.36869e-18
0.0137028 -0.000248318 2.0691e-18
0.0145653 -0.00024355 1.58249e-18
0.0154274 -0.000222521 1.6209e-18
0.016275 -0.000176507 1.06891e-18
0.017 -0.000145794 1.23284e-18
0 0 0
0.000859053 -0.000277419 1.53336e-19
0.00167759 -0.000346128 5.71923e-20
0.00251847 -0.00036968 9.17795e-20
0.00337353 -0.000374134 8.23648e-20
0.00423294 -0.000373746 1.44191e-19
0.00509362 -0.000372568 4.20059e-19
0.00595444 -0.000371722 5.00543e-19
0.00681516 -0.000371272 8.66279e-19
0.00767578 -0.000371079 1.09089e-18
0.00853634 -0.000371025 1.26342e-18
0.00939689 -0.00037106 1.24633e-18
0.0102575 -0.000371196 1.21261e-18
0.0111181 -0.00037148 1.30523e-18
0.0119787 -0.000371947 1.20574e-18
0.0128391 -0.000372389 1.45573e-18
0.0136983 -0.000371852 1.96256e-18
0.0145535 -0.000366595 1.63659e-18
0.0153993 -0.000348606 1.41214e-18
0.0162449 -0.000264854 1.52538e-18
0.017 -0.000197911 1.90273e-19
0 0 0
0.000861864 0.000275441 -6.38142e-05
0.00168374 0.000343473 -0.000105567
0.00252529 0.000368155 -0.000122302
0.0033774 0.000373354 -0.000125716
0.00423477 0.000373455 -0.000125551
0.00509433 0.000372478 -0.000124763
0.00595467 0.000371706 -0.000124181
0.00681521 0.000371277 -0.000123867
0.00767578 0.000371086 -0.00012373
0.00853633 0.000371031 -0.000123692