<?xml version="1.0"?>
<VTKFile type="UnstructuredGrid" version="0.1" byte_order="LittleEndian">
<UnstructuredGrid>
<Piece NumberOfPoints="1029" NumberOfCells="720">
<Points>
<DataArray type="Float32" NumberOfComponents="3" format="ascii">
0 0 0
0.005 0 0
0.01 0 0
0.015 0 0
0.02 0 0
0.025 0 0
0.03 0 0
0.035 0 0
0.04 0 0
0.045 0 0
0.05 0 0
0.055 0 0
0.06 0 0
0.065 0 0
0.07 0 0
0.075 0 0
0.08 0 0
0.085 0 0
0.09 0 0
0.095 0 0
0.1 0 0
0 0.005 0
0.005 0.005 0
0.01 0.005 0
0.015 0.005 0
0.02 0.005 0
0.025 0.005 0
0.03 0.005 0
0.035 0.005 0
0.04 0.005 0
0.045 0.005 0
0.05 0.005 0
0.055 0.005 0
0.06 0.005 0
0.065 0.005 0
0.07 0.005 0
0.075 0.005 0
0.08 0.005 0
0.085 0.005 0
0.09 0.005 0
0.095 0.005 0
0.1 0.005 0
0 0.01 0
0.005 0.01 0
0.01 0.01 0
0.015 0.01 0
0.02 0.01 0
0.025 0.01 0
0.03 0.01 0
0.035 0.01 0
0.04 0.01 0
0.045 0.01 0
0.05 0.01 0
0.055 0.01 0
0.06 0.01 0
0.065 0.01 0
0.07 0.01 0
0.075 0.01 0
0.08 0.01 0
0.085 0.01 0
0.09 0.01 0
0.095 0.01 0
0.1 0.01 0
0 0.015 0
0.005 0.015 0
0.01 0.015 0
0.015 0.015 0
0.02 0.015 0
0.025 0.015 0
0.03 0.015 0
0.035 0.015 0
0.04 0.015 0
0.045 0.015 0
0.05 0.015 0
0.055 0.015 0
0.06 0.015 0
0.065 0.015 0
0.07 0.015 0
0.075 0.015 0
0.08 0.015 0
0.085 0.015 0
0.09 0.015 0
0.095 0.015 0
0.1 0.015 0
0 0.02 0
0.005 0.02 0
0.01 0.02 0
0.015 0.02 0
0.02 0.02 0
0.025 0.02 0
0.03 0.02 0
0.035 0.02 0
0.04 0.02 0
0.045 0.02 0
0.05 0.02 0
0.055 0.02 0
0.06 0.02 0
0.065 0.02 0
0.07 0.02 0
0.075 0.02 0
0.08 0.02 0
0.085 0.02 0
0.09 0.02 0
0.095 0.02 0
0.1 0.02 0
0 0.025 0
0.005 0.025 0
0.01 0.025 0
0.015 0.025 0
0.02 0.025 0
0.025 0.025 0
0.03 0.025 0
0.035 0.025 0
0.04 0.025 0
0.045 0.025 0
0.05 0.025 0
0.055 0.025 0
0.06 0.025 0
0.065 0.025 0
0.07 0.025 0
0.075 0.025 0
0.08 0.025 0
0.085 0.025 0
0.09 0.025 0
0.095 0.025 0
0.1 0.025 0
0 0.03 0
0.005 0.03 0
0.01 0.03 0
0.015 0.03 0
0.02 0.03 0
0.025 0.03 0
0.03 0.03 0
0.035 0.03 0
0.04 0.03 0
0.045 0.03 0
0.05 0.03 0
0.055 0.03 0
0.06 0.03 0
0.065 0.03 0
0.07 0.03 0
0.075 0.03 0
0.08 0.03 0
0.085 0.03 0
0.09 0.03 0
0.095 0.03 0
0.1 0.03 0
0 0 0.005
0.005 0 0.005
0.01 0 0.005
0.015 0 0.005
0.02 0 0.005
0.025 0 0.005
0.03 0 0.005
0.035 0 0.005
0.04 0 0.005
0.045 0 0.005
0.05 0 0.005
0.055 0 0.005
0.06 0 0.005
0.065 0 0.005
0.07 0 0.005
0.075 0 0.005
0.08 0 0.005
0.085 0 0.005
0.09 0 0.005
0.095 0 0.005
0.1 0 0.005
0 0.005 0.005
0.005 0.005 0.005
0.01 0.005 0.005
0.015 0.005 0.005
0.02 0.005 0.005
0.025 0.005 0.005
0.03 0.005 0.005
0.035 0.005 0.005
0.04 0.005 0.005
0.045 0.005 0.005
0.05 0.005 0.005
0.055 0.005 0.005
0.06 0.005 0.005
0.065 0.005 0.005
0.07 0.005 0.005
0.075 0.005 0.005
0.08 0.005 0.005
0.085 0.005 0.005
0.09 0.005 0.005
0.095 0.005 0.005
0.1 0.005 0.005
0 0.01 0.005
0.005 0.01 0.005
0.01 0.01 0.005
0.015 0.01 0.005
0.02 0.01 0.005
0.025 0.01 0.005
0.03 0.01 0.005
0.035 0.01 0.005
0.04 0.01 0.005
0.045 0.01 0.005
0.05 0.01 0.005
0.055 0.01 0.005
0.06 0.01 0.005
0.065 0.01 0.005
0.07 0.01 0.005
0.075 0.01 0.005
0.08 0.01 0.005
0.085 0.01 0.005
0.09 0.01 0.005
0.095 0.01 0.005
0.1 0.01 0.005
0 0.015 0.005
0.005 0.015 0.005
0.01 0.015 0.005
0.015 0.015 0.005
0.02 0.015 0.005
0.025 0.015 0.005
0.03 0.015 0.005
0.035 0.015 0.005
0.04 0.015 0.005
0.045 0.015 0.005
0.05 0.015 0.005
0.055 0.015 0.005
0.06 0.015 0.005
0.065 0.015 0.005
0.07 0.015 0.005
0.075 0.015 0.005
0.08 0.015 0.005
0.085 0.015 0.005
0.09 0.015 0.005
0.095 0.015 0.005
0.1 0.015 0.005
0 0.02 0.005
0.005 0.02 0.005
0.01 0.02 0.005
0.015 0.02 0.005
0.02 0.02 0.005
0.025 0.02 0.005
0.03 0.02 0.005
0.035 0.02 0.005
0.04 0.02 0.005
0.045 0.02 0.005
0.05 0.02 0.005
0.055 0.02 0.005
0.06 0.02 0.005
0.065 0.02 0.005
0.07 0.02 0.005
0.075 0.02 0.005
0.08 0.02 0.005
0.085 0.02 0.005
0.09 0.02 0.005
0.095 0.02 0.005
0.1 0.02 0.005
0 0.025 0.005
0.005 0.025 0.005
0.01 0.025 0.005
0.015 0.025 0.005
0.02 0.025 0.005
0.025 0.025 0.005
0.03 0.025 0.005
0.035 0.025 0.005
0.04 0.025 0.005
0.045 0.025 0.005
0.05 0.025 0.005
0.055 0.025 0.005
0.06 0.025 0.005
0.065 0.025 0.005
0.07 0.025 0.005
0.075 0.025 0.005
0.08 0.025 0.005
0.085 0.025 0.005
0.09 0.025 0.005
0.095 0.025 0.005
0.1 0.025 0.005
0 0.03 0.005
0.005 0.03 0.005
0.01 0.03 0.005
0.015 0.03 0.005
0.02 0.03 0.005
0.025 0.03 0.005
0.03 0.03 0.005
0.035 0.03 0.005
0.04 0.03 0.005
0.045 0.03 0.005
0.05 0.03 0.005
0.055 0.03 0.005
0.06 0.03 0.005
0.065 0.03 0.005
0.07 0.03 0.005
0.075 0.03 0.005
0.08 0.03 0.005
0.085 0.03 0.005
0.09 0.03 0.005
0.095 0.03 0.005
0.1 0.03 0.005
0 0 0.01
0.005 0 0.01
0.01 0 0.01
0.015 0 0.01
0.02 0 0.01
0.025 0 0.01
0.03 0 0.01
0.035 0 0.01
0.04 0 0.01
0.045 0 0.01
0.05 0 0.01
0.055 0 0.01
0.06 0 0.01
0.065 0 0.01
0.07 0 0.01
0.075 0 0.01
0.08 0 0.01
0.085 0 0.01
0.09 0 0.01
0.095 0 0.01
0.1 0 0.01
0 0.005 0.01
0.005 0.005 0.01
0.01 0.005 0.01
0.015 0.005 0.01
0.02 0.005 0.01
0.025 0.005 0.01
0.03 0.005 0.01
0.035 0.005 0.01
0.04 0.005 0.01
0.045 0.005 0.01
0.05 0.005 0.01
0.055 0.005 0.01
0.06 0.005 0.01
0.065 0.005 0.01
0.07 0.005 0.01
0.075 0.005 0.01
0.08 0.005 0.01
0.085 0.005 0.01
0.09 0.005 0.01
0.095 0.005 0.01
0.1 0.005 0.01
0 0.01 0.01
0.005 0.01 0.01
0.01 0.01 0.01
0.015 0.01 0.01
0.02 0.01 0.01
0.025 0.01 0.01
0.03 0.01 0.01
0.035 0.01 0.01
0.04 0.01 0.01
0.045 0.01 0.01
0.05 0.01 0.01
0.055 0.01 0.01
0.06 0.01 0.01
0.065 0.01 0.01
0.07 0.01 0.01
0.075 0.01 0.01
0.08 0.01 0.01
0.085 0.01 0.01
0.09 0.01 0.01
0.095 0.01 0.01
0.1 0.01 0.01
0 0.015 0.01
0.005 0.015 0.01
0.01 0.015 0.01
0.015 0.015 0.01
0.02 0.015 0.01
0.025 0.015 0.01
0.03 0.015 0.01
0.035 0.015 0.01
0.04 0.015 0.01
0.045 0.015 0.01
0.05 0.015 0.01
0.055 0.015 0.01
0.06 0.015 0.01
0.065 0.015 0.01
0.07 0.015 0.01
0.075 0.015 0.01
0.08 0.015 0.01
0.085 0.015 0.01
0.09 0.015 0.01
0.095 0.015 0.01
0.1 0.015 0.01
0 0.02 0.01
0.005 0.02 0.01
0.01 0.02 0.01
0.015 0.02 0.01
0.02 0.02 0.01
0.025 0.02 0.01
0.03 0.02 0.01
0.035 0.02 0.01
0.04 0.02 0.01
0.045 0.02 0.01
0.05 0.02 0.01
0.055 0.02 0.01
0.06 0.02 0.01
0.065 0.02 0.01
0.07 0.02 0.01
0.075 0.02 0.01
0.08 0.02 0.01
0.085 0.02 0.01
0.09 0.02 0.01
0.095 0.02 0.01
0.1 0.02 0.01
0 0.025 0.01
0.005 0.025 0.01
0.01 0.025 0.01
0.015 0.025 0.01
0.02 0.025 0.01
0.025 0.025 0.01
0.03 0.025 0.01
0.035 0.025 0.01
0.04 0.025 0.01
0.045 0.025 0.01
0.05 0.025 0.01
0.055 0.025 0.01
0.06 0.025 0.01
0.065 0.025 0.01
0.07 0.025 0.01
0.075 0.025 0.01
0.08 0.025 0.01
0.085 0.025 0.01
0.09 0.025 0.01
0.095 0.025 0.01
0.1 0.025 0.01
0 0.03 0.01
0.005 0.03 0.01
0.01 0.03 0.01
0.015 0.03 0.01
0.02 0.03 0.01
0.025 0.03 0.01
0.03 0.03 0.01
0.035 0.03 0.01
0.04 0.03 0.01
0.045 0.03 0.01
0.05 0.03 0.01
0.055 0.03 0.01
0.06 0.03 0.01
0.065 0.03 0.01
0.07 0.03 0.01
0.075 0.03 0.01
0.08 0.03 0.01
0.085 0.03 0.01
0.09 0.03 0.01
0.095 0.03 0.01
0.1 0.03 0.01
0 0 0.015
0.005 0 0.015
0.01 0 0.015
0.015 0 0.015
0.02 0 0.015
0.025 0 0.015
0.03 0 0.015
0.035 0 0.015
0.04 0 0.015
0.045 0 0.015
0.05 0 0.015
0.055 0 0.015
0.06 0 0.015
0.065 0 0.015
0.07 0 0.015
0.075 0 0.015
0.08 0 0.015
0.085 0 0.015
0.09 0 0.015
0.095 0 0.015
0.1 0 0.015
0 0.005 0.015
0.005 0.005 0.015
0.01 0.005 0.015
0.015 0.005 0.015
0.02 0.005 0.015
0.025 0.005 0.015
0.03 0.005 0.015
0.035 0.005 0.015
0.04 0.005 0.015
0.045 0.005 0.015
0.05 0.005 0.015
0.055 0.005 0.015
0.06 0.005 0.015
0.065 0.005 0.015
0.07 0.005 0.015
0.075 0.005 0.015
0.08 0.005 0.015
0.085 0.005 0.015
0.09 0.005 0.015
0.095 0.005 0.015
0.1 0.005 0.015
0 0.01 0.015
0.005 0.01 0.015
0.01 0.01 0.015
0.015 0.01 0.015
0.02 0.01 0.015
0.025 0.01 0.015
0.03 0.01 0.015
0.035 0.01 0.015
0.04 0.01 0.015
0.045 0.01 0.015
0.05 0.01 0.015
0.055 0.01 0.015
0.06 0.01 0.015
0.065 0.01 0.015
0.07 0.01 0.015
0.075 0.01 0.015
0.08 0.01 0.015
0.085 0.01 0.015
0.09 0.01 0.015
0.095 0.01 0.015
0.1 0.01 0.015
0 0.015 0.015
0.005 0.015 0.015
0.01 0.015 0.015
0.015 0.015 0.015
0.02 0.015 0.015
0.025 0.015 0.015
0.03 0.015 0.015
0.035 0.015 0.015
0.04 0.015 0.015
0.045 0.015 0.015
0.05 0.015 0.015
0.055 0.015 0.015
0.06 0.015 0.015
0.065 0.015 0.015
0.07 0.015 0.015
0.075 0.015 0.015
0.08 0.015 0.015
0.085 0.015 0.015
0.09 0.015 0.015
0.095 0.015 0.015
0.1 0.015 0.015
0 0.02 0.015
0.005 0.02 0.015
0.01 0.02 0.015
0.015 0.02 0.015
0.02 0.02 0.015
0.025 0.02 0.015
0.03 0.02 0.015
0.035 0.02 0.015
0.04 0.02 0.015
0.045 0.02 0.015
0.05 0.02 0.015
0.055 0.02 0.015
0.06 0.02 0.015
0.065 0.02 0.015
0.07 0.02 0.015
0.075 0.02 0.015
0.08 0.02 0.015
0.085 0.02 0.015
0.09 0.02 0.015
0.095 0.02 0.015
0.1 0.02 0.015
0 0.025 0.015
0.005 0.025 0.015
0.01 0.025 0.015
0.015 0.025 0.015
0.02 0.025 0.015
0.025 0.025 0.015
0.03 0.025 0.015
0.035 0.025 0.015
0.04 0.025 0.015
0.045 0.025 0.015
0.05 0.025 0.015
0.055 0.025 0.015
0.06 0.025 0.015
0.065 0.025 0.015
0.07 0.025 0.015
0.075 0.025 0.015
0.08 0.025 0.015
0.085 0.025 0.015
0.09 0.025 0.015
0.095 0.025 0.015
0.1 0.025 0.015
0 0.03 0.015
0.005 0.03 0.015
0.01 0.03 0.015
0.015 0.03 0.015
0.02 0.03 0.015
0.025 0.03 0.015
0.03 0.03 0.015
0.035 0.03 0.015
0.04 0.03 0.015
0.045 0.03 0.015
0.05 0.03 0.015
0.055 0.03 0.015
0.06 0.03 0.015
0.065 0.03 0.015
0.07 0.03 0.015
0.075 0.03 0.015
0.08 0.03 0.015
0.085 0.03 0.015
0.09 0.03 0.015
0.095 0.03 0.015
0.1 0.03 0.015
0 0 0.02
0.005 0 0.02
0.01 0 0.02
0.015 0 0.02
0.02 0 0.02
0.025 0 0.02
0.03 0 0.02
0.035 0 0.02
0.04 0 0.02
0.045 0 0.02
0.05 0 0.02
0.055 0 0.02
0.06 0 0.02
0.065 0 0.02
0.07 0 0.02
0.075 0 0.02
0.08 0 0.02
0.085 0 0.02
0.09 0 0.02
0.095 0 0.02
0.1 0 0.02
0 0.005 0.02
0.005 0.005 0.02
0.01 0.005 0.02
0.015 0.005 0.02
0.02 0.005 0.02
0.025 0.005 0.02
0.03 0.005 0.02
0.035 0.005 0.02
0.04 0.005 0.02
0.045 0.005 0.02
0.05 0.005 0.02
0.055 0.005 0.02
0.06 0.005 0.02
0.065 0.005 0.02
0.07 0.005 0.02
0.075 0.005 0.02
0.08 0.005 0.02
0.085 0.005 0.02
0.09 0.005 0.02
0.095 0.005 0.02
0.1 0.005 0.02
0 0.01 0.02
0.005 0.01 0.02
0.01 0.01 0.02
0.015 0.01 0.02
0.02 0.01 0.02
0.025 0.01 0.02
0.03 0.01 0.02
0.035 0.01 0.02
0.04 0.01 0.02
0.045 0.01 0.02
0.05 0.01 0.02
0.055 0.01 0.02
0.06 0.01 0.02
0.065 0.01 0.02
0.07 0.01 0.02
0.075 0.01 0.02
0.08 0.01 0.02
0.085 0.01 0.02
0.09 0.01 0.02
0.095 0.01 0.02
[...]
<PointData Vectors="Displacement">
<DataArray type="Float32" Name="Displacement" NumberOfComponents="3" format="ascii">
0 0 0
0.000569273 0.000147683 0.000147683
0.00104666 0.000188315 0.000188315
0.00152699 0.000206584 0.000206584
0.00201876 0.000211859 0.000211859
0.00251916 0.000212872 0.000212872
0.00302455 0.000212564 0.000212564
0.00353232 0.00021211 0.00021211
0.00404106 0.000211797 0.000211797
0.00455012 0.000211642 0.000211642
0.00505927 0.000211608 0.000211608
0.00556839 0.000211682 0.000211682
0.00607736 0.000211884 0.000211884
0.00658583 0.000212232 0.000212232
0.00709297 0.000212632 0.000212632
0.00759714 0.000212545 0.000212545
0.00809568 0.00021042 0.00021042
0.00858535 0.000201696 0.000201696
0.00906546 0.000179438 0.000179438
0.00956772 9.92411e-05 9.92411e-05
0.01 4.05519e-05 4.05519e-05
0 0 0
0.000524001 7.6877e-05 0.000148063
0.00102148 0.000123351 0.000190673
0.00151504 0.000138333 0.000207449
0.00201394 0.000142589 0.000212269
0.00251758 0.000142837 0.000213006
0.00302422 0.000142209 0.000212596
0.00353237 0.000141629 0.000212107
0.00404116 0.000141279 0.000211788
0.00455018 0.000141117 0.000211633
0.00505926 0.000141084 0.0002116
0.00556832 0.00014116 0.000211674
0.00607727 0.000141377 0.000211877
0.00658589 0.000141784 0.00021224
0.00709364 0.000142353 0.000212692
0.00759956 0.000142695 0.000212754
0.00810221 0.000141272 0.000210937
0.00860034 0.000134331 0.000203016
0.00909639 0.000110462 0.000181446
0.00959958 6.42611e-05 9.64059e-05
0.01 3.5741e-05 3.20812e-05
0 0 0
0.000517838 3.46514e-05 0.000150871
0.00100635 5.87308e-05 0.000193452
0.00150429 6.93123e-05 0.000209383
0.002008 7.1818e-05 0.000213172
0.00251488 7.18459e-05 0.000213367
0.00302319 7.1344e-05 0.000212706
0.00353206 7.09262e-05 0.000212124
0.0040411 7.06827e-05 0.000211778
0.00455018 7.05724e-05 0.000211619
0.00505926 7.05499e-05 0.000211586
0.00556833 7.0602e-05 0.000211662
0.0060774 7.07506e-05 0.000211876
0.00658639 7.10371e-05 0.000212285
0.0070951 7.14604e-05 0.000212873
0.00760302 7.17749e-05 0.00021326
0.00810907 7.10115e-05 0.000212107
0.00861129 6.60504e-05 0.000204986
0.00910548 5.23241e-05 0.000183132
0.00960265 3.24066e-05 9.23328e-05
0.01 2.08307e-05 2.17012e-05
0 0 0
0.000516222 -2.48751e-20 0.000151679
0.00100291 6.81694e-20 0.000194689
0.00150024 2.0044e-19 0.000210191
0.00200553 2.11102e-19 0.000213621
0.00251364 -2.99118e-20 0.000213553
0.00302267 1.7308e-19 0.000212769
0.00353188 8.49045e-20 0.000212138
0.00404106 -3.08732e-21 0.000211775
0.00455018 -1.27688e-19 0.000211613
0.00505926 1.49561e-19 0.00021158
0.00556835 -1.40286e-19 0.000211657
0.00607748 -2.88748e-19 0.000211879
0.00658666 -2.86621e-19 0.000212313
0.0070958 -1.81044e-19 0.00021297
0.00760453 1.02909e-19 0.000213518
0.0081118 4.32182e-19 0.00021263
0.00861437 7.76618e-19 0.000205778
0.00910701 8.78508e-19 0.000183376
0.00960255 7.52808e-19 9.05915e-05
0.01 9.25679e-19 1.83112e-05
0 0 0
0.000517838 -3.46514e-05 0.000150871
0.00100635 -5.87308e-05 0.000193452
0.00150429 -6.93123e-05 0.000209383
0.002008 -7.1818e-05 0.000213172
0.00251488 -7.18459e-05 0.000213367
0.00302319 -7.1344e-05 0.000212706
0.00353206 -7.09262e-05 0.000212124
0.0040411 -7.06827e-05 0.000211778
0.00455018 -7.05724e-05 0.000211619
0.00505926 -7.05499e-05 0.000211586
0.00556833 -7.0602e-05 0.000211662
0.0060774 -7.07506e-05 0.000211876
0.00658639 -7.10371e-05 0.000212285
0.0070951 -7.14604e-05 0.000212873
0.00760302 -7.17749e-05 0.00021326
0.00810907 -7.10115e-05 0.000212107
0.00861129 -6.60504e-05 0.000204986
0.00910548 -5.23241e-05 0.000183132
0.00960265 -3.24066e-05 9.23328e-05
0.01 -2.08307e-05 2.17012e-05
0 0 0
0.000524001 -7.6877e-05 0.000148063
0.00102148 -0.000123351 0.000190673
0.00151504 -0.000138333 0.000207449
0.00201394 -0.000142589 0.000212269
0.00251758 -0.000142837 0.000213006
0.00302422 -0.000142209 0.000212596
0.00353237 -0.000141629 0.000212107
0.00404116 -0.000141279 0.000211788
0.00455018 -0.000141117 0.000211633
0.00505926 -0.000141084 0.0002116
0.00556832 -0.00014116 0.000211674
0.00607727 -0.000141377 0.000211877
0.00658589 -0.000141784 0.00021224
0.00709364 -0.000142353 0.000212692
0.00759956 -0.000142695 0.000212754
0.00810221 -0.000141272 0.000210937
0.00860034 -0.000134331 0.000203016
0.00909639 -0.000110462 0.000181446
0.00959958 -6.42611e-05 9.64059e-05
0.01 -3.5741e-05 3.20812e-05
0 0 0
0.000569273 -0.000147683 0.000147683
0.00104666 -0.000188315 0.000188315
0.00152699 -0.000206584 0.000206584
0.00201876 -0.000211859 0.000211859
0.00251916 -0.000212872 0.000212872
0.00302455 -0.000212564 0.000212564
0.00353232 -0.00021211 0.00021211
0.00404106 -0.000211797 0.000211797
0.00455012 -0.000211642 0.000211642
0.00505927 -0.000211608 0.000211608
0.00556839 -0.000211682 0.000211682
0.00607736 -0.000211884 0.000211884
0.00658583 -0.000212232 0.000212232
0.00709297 -0.000212632 0.000212632
0.00759714 -0.000212545 0.000212545
0.00809568 -0.00021042 0.00021042
0.00858535 -0.000201696 0.000201696
0.00906546 -0.000179438 0.000179438
0.00956772 -9.92411e-05 9.92411e-05
0.01 -4.05519e-05 4.05519e-05
0 0 0
0.000524001 0.000148063 7.6877e-05
0.00102148 0.000190673 0.000123351
0.00151504 0.000207449 0.000138333
0.00201394 0.000212269 0.000142589
0.00251758 0.000213006 0.000142837
0.00302422 0.000212596 0.000142209
0.00353237 0.000212107 0.000141629
0.00404116 0.000211788 0.000141279
0.00455018 0.000211633 0.000141117
0.00505926 0.0002116 0.000141084
0.00556832 0.000211674 0.00014116
0.00607727 0.000211877 0.000141377
0.00658589 0.00021224 0.000141784
0.00709364 0.000212692 0.000142353
0.00759956 0.000212754 0.000142695
0.00810221 0.000210937 0.000141272
0.00860034 0.000203016 0.000134331
0.00909639 0.000181446 0.000110462
0.00959958 9.64059e-05 6.42611e-05
0.01 3.20812e-05 3.5741e-05
0 0 0
0.000477733 7.6566e-05 7.6566e-05
0.000996285 0.000123069 0.000123069
0.00150363 0.000138187 0.000138187
0.0020094 0.000142475 0.000142475
0.00251614 0.000142786 0.000142786
0.00302396 0.000142187 0.000142187
0.00353244 0.000141622 0.000141622
0.00404126 0.000141278 0.000141278
0.00455023 0.000141118 0.000141118
0.00505925 0.000141085 0.000141085
0.00556825 0.00014116 0.00014116
0.00607718 0.000141374 0.000141374
0.00658591 0.000141773 0.000141773
0.00709422 0.000142325 0.000142325
0.00760179 0.000142633 0.000142633
0.00810843 0.000141175 0.000141175
0.00861511 0.000134265 0.000134265
0.00912871 0.000110418 0.000110418
0.00963368 6.41229e-05 6.41229e-05
0.01 3.52627e-05 3.52627e-05
0 0 0
0.000471285 3.40332e-05 7.76804e-05
0.000981204 5.80558e-05 0.000124657
0.00149314 6.8835e-05 0.000139252
0.00200376 7.15638e-05 0.000143001
0.00251362 7.17308e-05 0.000142989
0.00302301 7.13023e-05 0.000142248
0.00353216 7.09152e-05 0.00014163
0.00404122 7.06826e-05 0.000141271
0.00455024 7.05752e-05 0.000141109
0.00505925 7.0553e-05 0.000141076
0.00556826 7.06038e-05 0.000141153
0.00607728 7.07471e-05 0.000141372
0.00658636 7.10174e-05 0.000141797
0.00709558 7.13994e-05 0.000142427
0.00760507 7.16282e-05 0.000142932
0.00811509 7.07295e-05 0.000141853
0.00862623 6.5648e-05 0.000135389
0.0091389 5.21572e-05 0.000110946
0.00963795 3.30657e-05 6.14953e-05
0.01 2.20478e-05 2.9732e-05
0 0 0
0.000469477 -2.50953e-20 7.82477e-05
0.000977768 -7.42887e-20 0.000125371
0.00148923 -1.43674e-19 0.000139798
0.00200141 2.25413e-19 0.000143288
0.00251245 5.57307e-20 0.00014311
0.00302253 1.81358e-19 0.000142287
0.003532 1.51532e-19 0.000141637
0.00404118 -7.20496e-20 0.000141269
0.00455023 -1.5966e-19 0.000141105
0.00505925 9.40651e-20 0.000141072
0.00556827 3.16335e-20 0.000141149
0.00607736 -1.02284e-19 0.000141373
0.00658661 -2.35688e-21 0.000141814
0.00709623 -1.53293e-19 0.000142491
0.00760651 2.19184e-19 0.000143101
0.00811774 1.94099e-19 0.000142207
0.00862938 4.04676e-19 0.000135872
0.0091409 6.83953e-19 0.00011101
0.00963841 7.45826e-19 6.02993e-05
0.01 1.1008e-18 2.75403e-05
0 0 0
0.000471285 -3.40332e-05 7.76804e-05
0.000981204 -5.80558e-05 0.000124657
0.00149314 -6.8835e-05 0.000139252
0.00200376 -7.15638e-05 0.000143001
0.00251362 -7.17308e-05 0.000142989
0.00302301 -7.13023e-05 0.000142248
0.00353216 -7.09152e-05 0.00014163
0.00404122 -7.06826e-05 0.000141271
0.00455024 -7.05752e-05 0.000141109
0.00505925 -7.0553e-05 0.000141076
0.00556826 -7.06038e-05 0.000141153
0.00607728 -7.07471e-05 0.000141372
0.00658636 -7.10174e-05 0.000141797
0.00709558 -7.13994e-05 0.000142427
0.00760507 -7.16282e-05 0.000142932
0.00811509 -7.07295e-05 0.000141853
0.00862623 -6.5648e-05 0.000135389
0.0091389 -5.21572e-05 0.000110946
0.00963795 -3.30657e-05 6.14953e-05
0.01 -2.20478e-05 2.9732e-05
0 0 0
0.000477733 -7.6566e-05 7.6566e-05
0.000996285 -0.000123069 0.000123069
0.00150363 -0.000138187 0.000138187
0.0020094 -0.000142475 0.000142475
0.00251614 -0.000142786 0.000142786
0.00302396 -0.000142187 0.000142187
0.00353244 -0.000141622 0.000141622
0.00404126 -0.000141278 0.000141278
0.00455023 -0.000141118 0.000141118
0.00505925 -0.000141085 0.000141085
0.00556825 -0.00014116 0.00014116
0.00607718 -0.000141374 0.000141374
0.00658591 -0.000141773 0.000141773
0.00709422 -0.000142325 0.000142325
0.00760179 -0.000142633 0.000142633
0.00810843 -0.000141175 0.000141175
0.00861511 -0.000134265 0.000134265
0.00912871 -0.000110418 0.000110418
0.00963368 -6.41229e-05 6.41229e-05
0.01 -3.52627e-05 3.52627e-05
0 0 0
0.000524001 -0.000148063 7.6877e-05
0.00102148 -0.000190673 0.000123351
0.00151504 -0.000207449 0.000138333
0.00201394 -0.000212269 0.000142589
0.00251758 -0.000213006 0.000142837
0.00302422 -0.000212596 0.000142209
0.00353237 -0.000212107 0.000141629
0.00404116 -0.000211788 0.000141279
0.00455018 -0.000211633 0.000141117
0.00505926 -0.0002116 0.000141084
0.00556832 -0.000211674 0.00014116
0.00607727 -0.000211877 0.000141377
0.00658589 -0.00021224 0.000141784
0.00709364 -0.000212692 0.000142353
0.00759956 -0.000212754 0.000142695
0.00810221 -0.000210937 0.000141272
0.00860034 -0.000203016 0.000134331
0.00909639 -0.000181446 0.000110462
0.00959958 -9.64059e-05 6.42611e-05
0.01 -3.20812e-05 3.5741e-05
0 0 0
0.000517838 0.000150871 3.46514e-05
0.00100635 0.000193452 5.87308e-05
0.00150429 0.000209383 6.93123e-05
0.002008 0.000213172 7.1818e-05
0.00251488 0.000213367 7.18459e-05
0.00302319 0.000212706 7.1344e-05
0.00353206 0.000212124 7.09262e-05
0.0040411 0.000211778 7.06827e-05
0.00455018 0.000211619 7.05724e-05
0.00505926 0.000211586 7.05499e-05
0.00556833 0.000211662 7.0602e-05
0.0060774 0.000211876 7.07506e-05
0.00658639 0.000212285 7.10371e-05
0.0070951 0.000212873 7.14604e-05
0.00760302 0.00021326 7.17749e-05
0.00810907 0.000212107 7.10115e-05
0.00861129 0.000204986 6.60504e-05
0.00910548 0.000183132 5.23241e-05
0.00960265 9.23328e-05 3.24066e-05
0.01 2.17012e-05 2.08307e-05
0 0 0
0.000471285 7.76804e-05 3.40332e-05
0.000981204 0.000124657 5.80558e-05
0.00149314 0.000139252 6.8835e-05
0.00200376 0.000143001 7.15638e-05
0.00251362 0.000142989 7.17308e-05
0.00302301 0.000142248 7.13023e-05
0.00353216 0.00014163 7.09152e-05
0.00404122 0.000141271 7.06826e-05
0.00455024 0.000141109 7.05752e-05
0.00505925 0.000141076 7.0553e-05
0.00556826 0.000141153 7.06038e-05
0.00607728 0.000141372 7.07471e-05
0.00658636 0.000141797 7.10174e-05
0.00709558 0.000142427 7.13994e-05
0.00760507 0.000142932 7.16282e-05
0.00811509 0.000141853 7.07295e-05
0.00862623 0.000135389 6.5648e-05
0.0091389 0.000110946 5.21572e-05
0.00963795 6.14953e-05 3.30657e-05
0.01 2.9732e-05 2.20478e-05
0 0 0
0.000465086 3.44702e-05 3.44702e-05
0.000966008 5.86014e-05 5.86014e-05
0.00148254 6.92578e-05 6.92578e-05
0.0019981 7.1783e-05 7.1783e-05
0.00251111 7.18178e-05 7.18178e-05
0.00302208 7.13277e-05 7.13277e-05
0.00353191 7.09183e-05 7.09183e-05
0.00404119 7.06796e-05 7.06796e-05
0.00455025 7.05714e-05 7.05714e-05
0.00505925 7.05493e-05 7.05493e-05
0.00556826 7.06004e-05 7.06004e-05
0.00607738 7.07462e-05 7.07462e-05
0.00658681 7.10276e-05 7.10276e-05
0.00709692 7.14446e-05 7.14446e-05
0.00760838 7.17595e-05 7.17595e-05
0.00812189 7.10173e-05 7.10173e-05
0.00863767 6.60343e-05 6.60343e-05
0.00914894 5.21897e-05 5.21897e-05
0.00964132 3.20357e-05 3.20357e-05
0.01 2.00159e-05 2.00159e-05
0 0 0
0.000463351 -6.72887e-20 3.46959e-05
0.000962575 1.3522e-20 5.89141e-05
0.00147858 1.42843e-19 6.94987e-05
0.00199572 2.04795e-19 7.19167e-05
0.00250995 1.12932e-19 7.18743e-05
0.00302161 1.81987e-19 7.13462e-05
0.00353175 4.96125e-20 7.09218e-05
0.00404115 9.11912e-21 7.06785e-05
0.00455024 -1.87616e-19 7.05694e-05
0.00505925 1.39947e-19 7.05473e-05
0.00556827 6.01095e-20 7.05988e-05
0.00607745 -6.87891e-20 7.07466e-05
0.00658705 4.77814e-20 7.10358e-05
0.00709757 1.63346e-19 7.14749e-05
0.00760983 1.08159e-19 7.18405e-05
0.00812462 4.13669e-20 7.11783e-05
0.00864089 4.44427e-19 6.62301e-05
0.00915082 4.41533e-19 5.21705e-05
0.0096415 9.5686e-19 3.14887e-05
0.01 7.7902e-19 1.90326e-05
0 0 0
0.000465086 -3.44702e-05 3.44702e-05
0.000966008 -5.86014e-05 5.86014e-05
0.00148254 -6.92578e-05 6.92578e-05
0.0019981 -7.1783e-05 7.1783e-05
0.00251111 -7.18178e-05 7.18178e-05
0.00302208 -7.13277e-05 7.13277e-05
0.00353191 -7.09183e-05 7.09183e-05
0.00404119 -7.06796e-05 7.06796e-05
0.00455025 -7.05714e-05 7.05714e-05
0.00505925 -7.05493e-05 7.05493e-05
0.00556826 -7.06004e-05 7.06004e-05
0.00607738 -7.07462e-05 7.07462e-05
0.00658681 -7.10276e-05 7.10276e-05
0.00709692 -7.14446e-05 7.14446e-05
0.00760838 -7.17595e-05 7.17595e-05
0.00812189 -7.10173e-05 7.10173e-05
0.00863767 -6.60343e-05 6.60343e-05
0.00914894 -5.21897e-05 5.21897e-05
0.00964132 -3.20357e-05 3.20357e-05
0.01 -2.00159e-05 2.00159e-05
0 0 0
0.000471285 -7.76804e-05 3.40332e-05
0.000981204 -0.000124657 5.80558e-05
0.00149314 -0.000139252 6.8835e-05
0.00200376 -0.000143001 7.15638e-05
0.00251362 -0.000142989 7.17308e-05
0.00302301 -0.000142248 7.13023e-05
0.00353216 -0.00014163 7.09152e-05
0.00404122 -0.000141271 7.06826e-05
0.00455024 -0.000141109 7.05752e-05
0.00505925 -0.000141076 7.0553e-05
0.00556826 -0.000141153 7.06038e-05
0.00607728 -0.000141372 7.07471e-05
0.00658636 -0.000141797 7.10174e-05
0.00709558 -0.000142427 7.13994e-05
0.00760507 -0.000142932 7.16282e-05
0.00811509 -0.000141853 7.07295e-05
0.00862623 -0.000135389 6.5648e-05
0.0091389 -0.000110946 5.21572e-05
0.00963795 -6.14953e-05 3.30657e-05
0.01 -2.9732e-05 2.20478e-05
0 0 0
0.000517838 -0.000150871 3.46514e-05
0.00100635 -0.000193452 5.87308e-05
0.00150429 -0.000209383 6.93123e-05
0.002008 -0.000213172 7.1818e-05
0.00251488 -0.000213367 7.18459e-05
0.00302319 -0.000212706 7.1344e-05
0.00353206 -0.000212124 7.09262e-05
0.0040411 -0.000211778 7.06827e-05
0.00455018 -0.000211619 7.05724e-05
0.00505926 -0.000211586 7.05499e-05
0.00556833 -0.000211662 7.0602e-05
0.0060774 -0.000211876 7.07506e-05
0.00658639 -0.000212285 7.10371e-05
0.0070951 -0.000212873 7.14604e-05
0.00760302 -0.00021326 7.17749e-05
0.00810907 -0.000212107 7.10115e-05
0.00861129 -0.000204986 6.60504e-05
0.00910548 -0.000183132 5.23241e-05
0.00960265 -9.23328e-05 3.24066e-05
0.01 -2.17012e-05 2.08307e-05
0 0 0
0.000516222 0.000151679 -4.00512e-20
0.00100291 0.000194689 -2.03341e-19
0.00150024 0.000210191 -8.56481e-20
0.00200553 0.000213621 -2.15907e-19
0.00251364 0.000213553 -1.08987e-19
0.00302267 0.000212769 -2.65245e-19
0.00353188 0.000212138 -8.03577e-20
0.00404106 0.000211775 1.79525e-20
0.00455018 0.000211613 -1.38994e-19
0.00505926 0.00021158 3.97352e-19
0.00556835 0.000211657 2.57649e-20
0.00607748 0.000211879 4.82658e-19
0.00658666 0.000212313 5.01052e-19
0.0070958 0.00021297 8.31091e-21
0.00760453 0.000213518 9.44057e-20
0.0081118 0.00021263 5.0263e-19
0.00861437 0.000205778 -1.1473e-20
0.00910701 0.000183376 6.83623e-20
0.00960255 9.05915e-05 -3.52847e-19
0.01 1.83112e-05 3.33034e-19
0 0 0
0.000469477 7.82477e-05 -8.76259e-20
0.000977768 0.000125371 -7.58031e-20
0.00148923 0.000139798 -9.88695e-20
0.00200141 0.000143288 -1.13191e-19
0.00251245 0.00014311 -2.06296e-19
0.00302253 0.000142287 -2.16355e-19
0.003532 0.000141637 -2.10183e-19
0.00404118 0.000141269 5.08834e-21
0.00455023 0.000141105 2.1648e-20
0.00505925 0.000141072 1.25716e-19
0.00556827 0.000141149 1.17648e-19
0.00607736 0.000141373 1.91179e-19
0.00658661 0.000141814 5.24347e-19
0.00709623 0.000142491 1.42088e-19
0.00760651 0.000143101 1.13645e-19
0.00811774 0.000142207 3.91499e-19
0.00862938 0.000135872 2.4109e-19
0.0091409 0.00011101 -1.10719e-19
0.00963841 6.02993e-05 1.58127e-19
0.01 2.75403e-05 -2.55726e-19
0 0 0
0.000463351 3.46959e-05 3.6139e-21
0.000962575 5.89141e-05 -7.60879e-20
0.00147858 6.94987e-05 -8.0354e-20
0.00199572 7.19167e-05 -1.37003e-19
0.00250995 7.18743e-05 -1.81897e-19
0.00302161 7.13462e-05 -1.22323e-19
0.00353175 7.09218e-05 -1.81948e-19
0.00404115 7.06785e-05 -3.20358e-20
0.00455024 7.05694e-05 4.46392e-20
0.00505925 7.05473e-05 1.51399e-19
0.00556827 7.05988e-05 7.81062e-20
0.00607745 7.07466e-05 1.76214e-19
0.00658705 7.10358e-05 4.90631e-19
0.00709757 7.14749e-05 1.40216e-20
0.00760983 7.18405e-05 1.92961e-19
0.00812462 7.11783e-05 4.57138e-19
0.00864089 6.62301e-05 2.41654e-19
0.00915082 5.21705e-05 1.99551e-19
0.0096415 3.14887e-05 2.82923e-19
0.01 1.90326e-05 1.35253e-21
0 0 0
0.000461634 -7.10187e-21 -3.40418e-20
0.00095914 -3.72968e-20 -1.15732e-19
0.00147459 2.08342e-19 -9.98532e-20
0.00199333 1.86324e-19 -8.64159e-20
0.00250878 7.12118e-20 -2.7344e-20
0.00302114 5.01586e-20 -1.86752e-19
0.00353159 1.10029e-19 -3.1139e-20
0.00404111 3.265e-20 -4.02065e-20
0.00455024 -1.09828e-19 5.30814e-20
0.00505925 1.12888e-19 8.12376e-20
0.00556829 3.39274e-20 -1.29453e-21
0.00607752 1.33936e-19 9.06098e-20
0.00658729 1.34219e-19 3.90415e-19
0.00709823 4.61618e-20 2.06683e-20
0.0076113 5.32571e-20 1.31259e-20
0.00812737 1.14169e-19 4.97249e-19
0.00864412 4.18762e-19 2.40836e-19
0.00915262 5.73293e-19 9.59235e-20
0.00964155 8.22597e-19 1.40455e-19
0.01 7.27014e-19 9.81384e-20
0 0 0
0.000463351 -3.46959e-05 9.98238e-21
0.000962575 -5.89141e-05 -7.42039e-20
0.00147858 -6.94987e-05 -8.00793e-20
0.00199572 -7.19167e-05 -1.50698e-19
0.00250995 -7.18743e-05 -1.44562e-19
0.00302161 -7.13462e-05 -1.74462e-19
0.00353175 -7.09218e-05 -2.42347e-20
0.00404115 -7.06785e-05 5.60425e-20
0.00455024 -7.05694e-05 -1.15309e-19
0.00505925 -7.05473e-05 8.61315e-20
0.00556827 -7.05988e-05 -2.13758e-20
0.00607745 -7.07466e-05 -1.48392e-19
0.00658705 -7.10358e-05 1.9576e-19
0.00709757 -7.14749e-05 -1.91263e-19
0.00760983 -7.18405e-05 1.97589e-19
0.00812462 -7.11783e-05 3.42058e-19
0.00864089 -6.62301e-05 2.54303e-19
0.00915082 -5.21705e-05 3.6716e-19
0.0096415 -3.14887e-05 5.23024e-20
0.01 -1.90326e-05 3.47448e-19
0 0 0
0.000469477 -7.82477e-05 5.84902e-20
0.000977768 -0.000125371 -1.27381e-19
0.00148923 -0.000139798 -6.01854e-20
0.00200141 -0.000143288 -2.25349e-19
0.00251245 -0.00014311 -2.0068e-19
0.00302253 -0.000142287 -1.76705e-19
0.003532 -0.000141637 2.18125e-20
0.00404118 -0.000141269 -6.08866e-20
0.00455023 -0.000141105 -1.08911e-19
0.00505925 -0.000141072 2.13763e-21
0.00556827 -0.000141149 -1.58459e-19
0.00607736 -0.000141373 -4.67797e-19
0.00658661 -0.000141814 -1.02973e-20
0.00709623 -0.000142491 -2.573e-19
0.00760651 -0.000143101 -6.30561e-20
0.00811774 -0.000142207 5.0973e-19
0.00862938 -0.000135872 3.28009e-19
0.0091409 -0.00011101 3.65155e-19
0.00963841 -6.02993e-05 7.11271e-21
0.01 -2.75403e-05 4.24924e-19
0 0 0
0.000516222 -0.000151679 -6.253e-20
0.00100291 -0.000194689 1.8602e-20
0.00150024 -0.000210191 -1.43114e-19
0.00200553 -0.000213621 -1.56474e-19
0.00251364 -0.000213553 -2.0799e-19
0.00302267 -0.000212769 -1.73293e-19
0.00353188 -0.000212138 8.97327e-20
0.00404106 -0.000211775 9.13448e-20
0.00455018 -0.000211613 8.26061e-20
0.00505926 -0.00021158 -1.86398e-20
0.00556835 -0.000211657 -2.33501e-19
0.00607748 -0.000211879 -4.85601e-19
0.00658666 -0.000212313 -2.82578e-19
0.0070958 -0.00021297 -4.38129e-19
0.00760453 -0.000213518 1.82349e-19
0.0081118 -0.00021263 4.00456e-19
0.00861437 -0.000205778 5.6569e-19
0.00910701 -0.000183376 3.74928e-19
0.00960255 -9.05915e-05 4.82724e-19
0.01 -1.83112e-05 -2.5714e-20
0 0 0
0.000517838 0.000150871 -3.46514e-05
0.00100635 0.000193452 -5.87308e-05