<?xml version="1.0"?>
<VTKFile type="UnstructuredGrid" version="0.1" byte_order="LittleEndian">
<UnstructuredGrid>
<Piece NumberOfPoints="1029" NumberOfCells="720">
<Points>
<DataArray type="Float32" NumberOfComponents="3" format="ascii">
0 0 0
0.005 0 0
0.01 0 0
0.015 0 0
0.02 0 0
0.025 0 0
0.03 0 0
0.035 0 0
0.04 0 0
0.045 0 0
0.05 0 0
0.055 0 0
0.06 0 0
0.065 0 0
0.07 0 0
0.075 0 0
0.08 0 0
0.085 0 0
0.09 0 0
0.095 0 0
0.1 0 0
0 0.005 0
0.005 0.005 0
0.01 0.005 0
0.015 0.005 0
0.02 0.005 0
0.025 0.005 0
0.03 0.005 0
0.035 0.005 0
0.04 0.005 0
0.045 0.005 0
0.05 0.005 0
0.055 0.005 0
0.06 0.005 0
0.065 0.005 0
0.07 0.005 0
0.075 0.005 0
0.08 0.005 0
0.085 0.005 0
0.09 0.005 0
0.095 0.005 0
0.1 0.005 0
0 0.01 0
0.005 0.01 0
0.01 0.01 0
0.015 0.01 0
0.02 0.01 0
0.025 0.01 0
0.03 0.01 0
0.035 0.01 0
0.04 0.01 0
0.045 0.01 0
0.05 0.01 0
0.055 0.01 0
0.06 0.01 0
0.065 0.01 0
0.07 0.01 0
0.075 0.01 0
0.08 0.01 0
0.085 0.01 0
0.09 0.01 0
0.095 0.01 0
0.1 0.01 0
0 0.015 0
0.005 0.015 0
0.01 0.015 0
0.015 0.015 0
0.02 0.015 0
0.025 0.015 0
0.03 0.015 0
0.035 0.015 0
0.04 0.015 0
0.045 0.015 0
0.05 0.015 0
0.055 0.015 0
0.06 0.015 0
0.065 0.015 0
0.07 0.015 0
0.075 0.015 0
0.08 0.015 0
0.085 0.015 0
0.09 0.015 0
0.095 0.015 0
0.1 0.015 0
0 0.02 0
0.005 0.02 0
0.01 0.02 0
0.015 0.02 0
0.02 0.02 0
0.025 0.02 0
0.03 0.02 0
0.035 0.02 0
0.04 0.02 0
0.045 0.02 0
0.05 0.02 0
0.055 0.02 0
0.06 0.02 0
0.065 0.02 0
0.07 0.02 0
0.075 0.02 0
0.08 0.02 0
0.085 0.02 0
0.09 0.02 0
0.095 0.02 0
0.1 0.02 0
0 0.025 0
0.005 0.025 0
0.01 0.025 0
0.015 0.025 0
0.02 0.025 0
0.025 0.025 0
0.03 0.025 0
0.035 0.025 0
0.04 0.025 0
0.045 0.025 0
0.05 0.025 0
0.055 0.025 0
0.06 0.025 0
0.065 0.025 0
0.07 0.025 0
0.075 0.025 0
0.08 0.025 0
0.085 0.025 0
0.09 0.025 0
0.095 0.025 0
0.1 0.025 0
0 0.03 0
0.005 0.03 0
0.01 0.03 0
0.015 0.03 0
0.02 0.03 0
0.025 0.03 0
0.03 0.03 0
0.035 0.03 0
0.04 0.03 0
0.045 0.03 0
0.05 0.03 0
0.055 0.03 0
0.06 0.03 0
0.065 0.03 0
0.07 0.03 0
0.075 0.03 0
0.08 0.03 0
0.085 0.03 0
0.09 0.03 0
0.095 0.03 0
0.1 0.03 0
0 0 0.005
0.005 0 0.005
0.01 0 0.005
0.015 0 0.005
0.02 0 0.005
0.025 0 0.005
0.03 0 0.005
0.035 0 0.005
0.04 0 0.005
0.045 0 0.005
0.05 0 0.005
0.055 0 0.005
0.06 0 0.005
0.065 0 0.005
0.07 0 0.005
0.075 0 0.005
0.08 0 0.005
0.085 0 0.005
0.09 0 0.005
0.095 0 0.005
0.1 0 0.005
0 0.005 0.005
0.005 0.005 0.005
0.01 0.005 0.005
0.015 0.005 0.005
0.02 0.005 0.005
0.025 0.005 0.005
0.03 0.005 0.005
0.035 0.005 0.005
0.04 0.005 0.005
0.045 0.005 0.005
0.05 0.005 0.005
0.055 0.005 0.005
0.06 0.005 0.005
0.065 0.005 0.005
0.07 0.005 0.005
0.075 0.005 0.005
0.08 0.005 0.005
0.085 0.005 0.005
0.09 0.005 0.005
0.095 0.005 0.005
0.1 0.005 0.005
0 0.01 0.005
0.005 0.01 0.005
0.01 0.01 0.005
0.015 0.01 0.005
0.02 0.01 0.005
0.025 0.01 0.005
0.03 0.01 0.005
0.035 0.01 0.005
0.04 0.01 0.005
0.045 0.01 0.005
0.05 0.01 0.005
0.055 0.01 0.005
0.06 0.01 0.005
0.065 0.01 0.005
0.07 0.01 0.005
0.075 0.01 0.005
0.08 0.01 0.005
0.085 0.01 0.005
0.09 0.01 0.005
0.095 0.01 0.005
0.1 0.01 0.005
0 0.015 0.005
0.005 0.015 0.005
0.01 0.015 0.005
0.015 0.015 0.005
0.02 0.015 0.005
0.025 0.015 0.005
0.03 0.015 0.005
0.035 0.015 0.005
0.04 0.015 0.005
0.045 0.015 0.005
0.05 0.015 0.005
0.055 0.015 0.005
0.06 0.015 0.005
0.065 0.015 0.005
0.07 0.015 0.005
0.075 0.015 0.005
0.08 0.015 0.005
0.085 0.015 0.005
0.09 0.015 0.005
0.095 0.015 0.005
0.1 0.015 0.005
0 0.02 0.005
0.005 0.02 0.005
0.01 0.02 0.005
0.015 0.02 0.005
0.02 0.02 0.005
0.025 0.02 0.005
0.03 0.02 0.005
0.035 0.02 0.005
0.04 0.02 0.005
0.045 0.02 0.005
0.05 0.02 0.005
0.055 0.02 0.005
0.06 0.02 0.005
0.065 0.02 0.005
0.07 0.02 0.005
0.075 0.02 0.005
0.08 0.02 0.005
0.085 0.02 0.005
0.09 0.02 0.005
0.095 0.02 0.005
0.1 0.02 0.005
0 0.025 0.005
0.005 0.025 0.005
0.01 0.025 0.005
0.015 0.025 0.005
0.02 0.025 0.005
0.025 0.025 0.005
0.03 0.025 0.005
0.035 0.025 0.005
0.04 0.025 0.005
0.045 0.025 0.005
0.05 0.025 0.005
0.055 0.025 0.005
0.06 0.025 0.005
0.065 0.025 0.005
0.07 0.025 0.005
0.075 0.025 0.005
0.08 0.025 0.005
0.085 0.025 0.005
0.09 0.025 0.005
0.095 0.025 0.005
0.1 0.025 0.005
0 0.03 0.005
0.005 0.03 0.005
0.01 0.03 0.005
0.015 0.03 0.005
0.02 0.03 0.005
0.025 0.03 0.005
0.03 0.03 0.005
0.035 0.03 0.005
0.04 0.03 0.005
0.045 0.03 0.005
0.05 0.03 0.005
0.055 0.03 0.005
0.06 0.03 0.005
0.065 0.03 0.005
0.07 0.03 0.005
0.075 0.03 0.005
0.08 0.03 0.005
0.085 0.03 0.005
0.09 0.03 0.005
0.095 0.03 0.005
0.1 0.03 0.005
0 0 0.01
0.005 0 0.01
0.01 0 0.01
0.015 0 0.01
0.02 0 0.01
0.025 0 0.01
0.03 0 0.01
0.035 0 0.01
0.04 0 0.01
0.045 0 0.01
0.05 0 0.01
0.055 0 0.01
0.06 0 0.01
0.065 0 0.01
0.07 0 0.01
0.075 0 0.01
0.08 0 0.01
0.085 0 0.01
0.09 0 0.01
0.095 0 0.01
0.1 0 0.01
0 0.005 0.01
0.005 0.005 0.01
0.01 0.005 0.01
0.015 0.005 0.01
0.02 0.005 0.01
0.025 0.005 0.01
0.03 0.005 0.01
0.035 0.005 0.01
0.04 0.005 0.01
0.045 0.005 0.01
0.05 0.005 0.01
0.055 0.005 0.01
0.06 0.005 0.01
0.065 0.005 0.01
0.07 0.005 0.01
0.075 0.005 0.01
0.08 0.005 0.01
0.085 0.005 0.01
0.09 0.005 0.01
0.095 0.005 0.01
0.1 0.005 0.01
0 0.01 0.01
0.005 0.01 0.01
0.01 0.01 0.01
0.015 0.01 0.01
0.02 0.01 0.01
0.025 0.01 0.01
0.03 0.01 0.01
0.035 0.01 0.01
0.04 0.01 0.01
0.045 0.01 0.01
0.05 0.01 0.01
0.055 0.01 0.01
0.06 0.01 0.01
0.065 0.01 0.01
0.07 0.01 0.01
0.075 0.01 0.01
0.08 0.01 0.01
0.085 0.01 0.01
0.09 0.01 0.01
0.095 0.01 0.01
0.1 0.01 0.01
0 0.015 0.01
0.005 0.015 0.01
0.01 0.015 0.01
0.015 0.015 0.01
0.02 0.015 0.01
0.025 0.015 0.01
0.03 0.015 0.01
0.035 0.015 0.01
0.04 0.015 0.01
0.045 0.015 0.01
0.05 0.015 0.01
0.055 0.015 0.01
0.06 0.015 0.01
0.065 0.015 0.01
0.07 0.015 0.01
0.075 0.015 0.01
0.08 0.015 0.01
0.085 0.015 0.01
0.09 0.015 0.01
0.095 0.015 0.01
0.1 0.015 0.01
0 0.02 0.01
0.005 0.02 0.01
0.01 0.02 0.01
0.015 0.02 0.01
0.02 0.02 0.01
0.025 0.02 0.01
0.03 0.02 0.01
0.035 0.02 0.01
0.04 0.02 0.01
0.045 0.02 0.01
0.05 0.02 0.01
0.055 0.02 0.01
0.06 0.02 0.01
0.065 0.02 0.01
0.07 0.02 0.01
0.075 0.02 0.01
0.08 0.02 0.01
0.085 0.02 0.01
0.09 0.02 0.01
0.095 0.02 0.01
0.1 0.02 0.01
0 0.025 0.01
0.005 0.025 0.01
0.01 0.025 0.01
0.015 0.025 0.01
0.02 0.025 0.01
0.025 0.025 0.01
0.03 0.025 0.01
0.035 0.025 0.01
0.04 0.025 0.01
0.045 0.025 0.01
0.05 0.025 0.01
0.055 0.025 0.01
0.06 0.025 0.01
0.065 0.025 0.01
0.07 0.025 0.01
0.075 0.025 0.01
0.08 0.025 0.01
0.085 0.025 0.01
0.09 0.025 0.01
0.095 0.025 0.01
0.1 0.025 0.01
0 0.03 0.01
0.005 0.03 0.01
0.01 0.03 0.01
0.015 0.03 0.01
0.02 0.03 0.01
0.025 0.03 0.01
0.03 0.03 0.01
0.035 0.03 0.01
0.04 0.03 0.01
0.045 0.03 0.01
0.05 0.03 0.01
0.055 0.03 0.01
0.06 0.03 0.01
0.065 0.03 0.01
0.07 0.03 0.01
0.075 0.03 0.01
0.08 0.03 0.01
0.085 0.03 0.01
0.09 0.03 0.01
0.095 0.03 0.01
0.1 0.03 0.01
0 0 0.015
0.005 0 0.015
0.01 0 0.015
0.015 0 0.015
0.02 0 0.015
0.025 0 0.015
0.03 0 0.015
0.035 0 0.015
0.04 0 0.015
0.045 0 0.015
0.05 0 0.015
0.055 0 0.015
0.06 0 0.015
0.065 0 0.015
0.07 0 0.015
0.075 0 0.015
0.08 0 0.015
0.085 0 0.015
0.09 0 0.015
0.095 0 0.015
0.1 0 0.015
0 0.005 0.015
0.005 0.005 0.015
0.01 0.005 0.015
0.015 0.005 0.015
0.02 0.005 0.015
0.025 0.005 0.015
0.03 0.005 0.015
0.035 0.005 0.015
0.04 0.005 0.015
0.045 0.005 0.015
0.05 0.005 0.015
0.055 0.005 0.015
0.06 0.005 0.015
0.065 0.005 0.015
0.07 0.005 0.015
0.075 0.005 0.015
0.08 0.005 0.015
0.085 0.005 0.015
0.09 0.005 0.015
0.095 0.005 0.015
0.1 0.005 0.015
0 0.01 0.015
0.005 0.01 0.015
0.01 0.01 0.015
0.015 0.01 0.015
0.02 0.01 0.015
0.025 0.01 0.015
0.03 0.01 0.015
0.035 0.01 0.015
0.04 0.01 0.015
0.045 0.01 0.015
0.05 0.01 0.015
0.055 0.01 0.015
0.06 0.01 0.015
0.065 0.01 0.015
0.07 0.01 0.015
0.075 0.01 0.015
0.08 0.01 0.015
0.085 0.01 0.015
0.09 0.01 0.015
0.095 0.01 0.015
0.1 0.01 0.015
0 0.015 0.015
0.005 0.015 0.015
0.01 0.015 0.015
0.015 0.015 0.015
0.02 0.015 0.015
0.025 0.015 0.015
0.03 0.015 0.015
0.035 0.015 0.015
0.04 0.015 0.015
0.045 0.015 0.015
0.05 0.015 0.015
0.055 0.015 0.015
0.06 0.015 0.015
0.065 0.015 0.015
0.07 0.015 0.015
0.075 0.015 0.015
0.08 0.015 0.015
0.085 0.015 0.015
0.09 0.015 0.015
0.095 0.015 0.015
0.1 0.015 0.015
0 0.02 0.015
0.005 0.02 0.015
0.01 0.02 0.015
0.015 0.02 0.015
0.02 0.02 0.015
0.025 0.02 0.015
0.03 0.02 0.015
0.035 0.02 0.015
0.04 0.02 0.015
0.045 0.02 0.015
0.05 0.02 0.015
0.055 0.02 0.015
0.06 0.02 0.015
0.065 0.02 0.015
0.07 0.02 0.015
0.075 0.02 0.015
0.08 0.02 0.015
0.085 0.02 0.015
0.09 0.02 0.015
0.095 0.02 0.015
0.1 0.02 0.015
0 0.025 0.015
0.005 0.025 0.015
0.01 0.025 0.015
0.015 0.025 0.015
0.02 0.025 0.015
0.025 0.025 0.015
0.03 0.025 0.015
0.035 0.025 0.015
0.04 0.025 0.015
0.045 0.025 0.015
0.05 0.025 0.015
0.055 0.025 0.015
0.06 0.025 0.015
0.065 0.025 0.015
0.07 0.025 0.015
0.075 0.025 0.015
0.08 0.025 0.015
0.085 0.025 0.015
0.09 0.025 0.015
0.095 0.025 0.015
0.1 0.025 0.015
0 0.03 0.015
0.005 0.03 0.015
0.01 0.03 0.015
0.015 0.03 0.015
0.02 0.03 0.015
0.025 0.03 0.015
0.03 0.03 0.015
0.035 0.03 0.015
0.04 0.03 0.015
0.045 0.03 0.015
0.05 0.03 0.015
0.055 0.03 0.015
0.06 0.03 0.015
0.065 0.03 0.015
0.07 0.03 0.015
0.075 0.03 0.015
0.08 0.03 0.015
0.085 0.03 0.015
0.09 0.03 0.015
0.095 0.03 0.015
0.1 0.03 0.015
0 0 0.02
0.005 0 0.02
0.01 0 0.02
0.015 0 0.02
0.02 0 0.02
0.025 0 0.02
0.03 0 0.02
0.035 0 0.02
0.04 0 0.02
0.045 0 0.02
0.05 0 0.02
0.055 0 0.02
0.06 0 0.02
0.065 0 0.02
0.07 0 0.02
0.075 0 0.02
0.08 0 0.02
0.085 0 0.02
0.09 0 0.02
0.095 0 0.02
0.1 0 0.02
0 0.005 0.02
0.005 0.005 0.02
0.01 0.005 0.02
0.015 0.005 0.02
0.02 0.005 0.02
0.025 0.005 0.02
0.03 0.005 0.02
0.035 0.005 0.02
0.04 0.005 0.02
0.045 0.005 0.02
0.05 0.005 0.02
0.055 0.005 0.02
0.06 0.005 0.02
0.065 0.005 0.02
0.07 0.005 0.02
0.075 0.005 0.02
0.08 0.005 0.02
0.085 0.005 0.02
0.09 0.005 0.02
0.095 0.005 0.02
0.1 0.005 0.02
0 0.01 0.02
0.005 0.01 0.02
0.01 0.01 0.02
0.015 0.01 0.02
0.02 0.01 0.02
0.025 0.01 0.02
0.03 0.01 0.02
0.035 0.01 0.02
0.04 0.01 0.02
0.045 0.01 0.02
0.05 0.01 0.02
0.055 0.01 0.02
0.06 0.01 0.02
0.065 0.01 0.02
0.07 0.01 0.02
0.075 0.01 0.02
0.08 0.01 0.02
0.085 0.01 0.02
0.09 0.01 0.02
0.095 0.01 0.02
[...]
<PointData Vectors="Displacement">
<DataArray type="Float32" Name="Displacement" NumberOfComponents="3" format="ascii">
0 0 0
7.03775e+10 -3.61531e+11 -6.39288e-06
5.59135e+10 -1.05297e+11 -1.98278e-06
-1.88714e+10 1.65789e+10 -5.37828e-06
-6.92344e+10 2.58928e+11 5.48609e-05
5.07709e+10 1.26957e+13 2.50982e-05
-4.66453e+11 4.73344e+13 0.000105475
1.99171e+12 -1.46857e+14 0.000488288
-5.00559e+12 1.476e+15 -0.00156252
-3.38267e+11 1.1259e+14 -0.0046363
2.77771e+13 -1.33506e+13 0.00152651
3.38311e+13 -2.2518e+14 0.01634
-5.15884e+14 1.68885e+15 -0.00457855
-1.2026e+14 -3.21692e+13 -0.00170476
1.31864e+13 1.60219e+14 -0.00924439
5.83115e+13 -7.03687e+12 -0.188274
-3.09163e+14 6.19668e+14 0.113608
-2.46291e+14 -8.07822e+15 -0.207445
1.31355e+15 1.96521e+16 -0.516292
-1.05535e+15 4.50635e+16 0.0150048
0.05 -1.45971e+17 0.151711
0 0 0
-1.30583e+10 6.02076e+10 6.83322e-07
-6.65097e+10 3.75244e+11 7.1919e-06
5.39371e+10 -9.98728e+11 -1.5068e-05
2.02162e+11 -4.58766e+12 -0.000146197
4.17779e+11 -1.55e+13 7.69707e-06
-3.20386e+11 -6.08706e+13 -3.39254e-06
1.88979e+12 -4.67488e+13 0.000110414
-4.00478e+12 -1.317e+14 0.00123424
-3.90327e+12 2.11106e+14 4.96793e-05
-1.68309e+13 -1.17469e+14 -0.00100282
3.20169e+12 -4.92581e+14 -0.00150162
-1.75922e+14 1.16108e+15 0.00660036
1.3818e+14 -9.81883e+14 -0.0288463
5.02408e+13 4.56635e+15 0.0685725
-9.51622e+12 -2.08739e+13 -0.0329378
5.85445e+13 -6.44225e+14 0.202167
1.1259e+15 7.85515e+14 -0.288346
7.59701e+13 -5.85768e+15 -2.05684
-1.45963e+15 -6.52872e+15 -0.312441
0.05 2.17138e+15 0.159578
0 0 0
1.8049e+10 -7.99387e+10 4.45951e-06
7.40866e+10 6.14237e+11 6.97928e-07
-1.90142e+10 -6.92921e+11 -5.50248e-07
4.58793e+10 -2.30004e+12 -2.67376e-05
6.9636e+11 -1.6442e+13 -3.02978e-05
-1.38512e+11 -2.47152e+13 2.23477e-06
7.75957e+11 -3.95204e+12 -1.45568e-05
-1.27287e+13 1.84257e+13 -0.000242214
5.90987e+12 -2.60781e+13 -0.00083554
1.8163e+13 -3.23676e+14 0.00191616
-9.29677e+12 8.04214e+14 -0.00825556
-4.10585e+14 6.21591e+14 0.000464512
-3.94065e+14 -7.16537e+14 0.0105751
-1.85149e+14 1.36447e+15 -0.00344731
-1.00512e+14 -6.93867e+14 0.000116443
3.08794e+14 -4.65055e+14 -0.0256951
-9.28867e+14 -7.75074e+14 0.165114
-5.14697e+15 4.38705e+14 0.221689
-1.09746e+15 1.25163e+15 -0.0166959
0.05 -1.348e+15 0.223362
0 0 0
1.09464e+10 -1.90373e+11 2.82815e-06
1.81415e+10 -1.20605e+11 -3.42126e-06
-2.38307e+09 1.13138e+11 2.21519e-06
6.24699e+10 1.95911e+12 1.80148e-05
9.84929e+11 -3.27275e+12 4.10907e-05
-1.4691e+12 -4.28926e+12 2.62091e-06
-2.4739e+12 4.94144e+12 2.75068e-05
2.21512e+12 7.82388e+12 -9.75682e-05
6.09602e+12 1.03469e+12 -0.000194115
-2.36697e+13 1.69693e+14 -0.00126689
-1.62882e+13 -1.28033e+15 -0.000421402
-6.81825e+13 5.61442e+14 0.000200516
-2.27893e+14 -4.42757e+13 -0.00816159
1.7343e+14 -1.70402e+14 0.00675954
-1.04455e+14 1.15854e+14 0.0284479
-9.26689e+13 1.23176e+15 0.377317
1.34666e+14 1.74559e+15 -0.0883858
8.16277e+15 -4.22212e+15 -0.567191
-2.87153e+15 -6.26904e+15 0.661639
0.05 3.08973e+15 0.0222867
0 0 0
-1.07876e+09 3.54975e+11 -7.11198e-08
2.39736e+10 2.34499e+11 -1.23515e-06
2.61706e+10 7.33976e+10 4.89399e-07
3.57341e+11 1.64056e+11 -2.80608e-06
-1.53932e+12 5.36559e+11 1.63894e-05
-3.14146e+12 -2.18939e+11 -6.35291e-06
-2.82909e+12 -2.63646e+11 3.93204e-05
-1.90871e+13 -1.00844e+13 -2.95879e-05
-2.78068e+12 -2.74878e+13 0.00073251
-5.00889e+12 -2.97868e+13 0.00499099
2.22217e+13 -1.31941e+14 -0.00317855
-1.29009e+14 1.56256e+15 0.0122446
9.93959e+14 3.00666e+14 -0.0189445
-2.55087e+14 -2.17703e+14 -0.0340808
-6.80382e+14 -2.10435e+14 0.156906
-1.89151e+14 -2.07118e+15 -0.21866
-2.86689e+15 -7.44427e+15 -0.0126959
-2.63782e+16 1.5012e+15 -0.104949
-1.86864e+16 -6.36133e+16 0.294023
0.05 -3.0588e+16 0.574428
0 0 0
-3.48245e+10 4.69567e+10 2.85665e-08
-1.52828e+11 -1.55573e+11 5.126e-08
1.27348e+11 -1.32466e+11 6.28422e-07
1.37366e+12 4.9883e+11 -7.8747e-07
6.88987e+12 -2.55323e+11 -7.43265e-06
-6.9512e+12 -2.79031e+10 6.6834e-06
-3.17487e+12 -1.11622e+12 -3.80493e-05
-6.12636e+11 2.42274e+12 8.68875e-05
5.07336e+10 1.39477e+12 -0.00152779
1.56202e+13 -6.54717e+13 0.00371326
4.32531e+13 -3.32473e+14 -0.000252194
-5.50127e+13 1.35577e+15 -6.07143e-05
-2.74211e+14 -3.18902e+14 -0.0282017
2.94807e+13 -7.91943e+14 0.1972
-1.57872e+15 7.06903e+13 0.0245187
-2.48945e+13 9.965e+14 0.0227059
9.21498e+14 -3.1572e+15 -0.0016018
3.70793e+15 -2.73381e+16 0.0430319
-5.56423e+15 4.37906e+16 0.151248
0.05 2.67927e+17 -0.237171
0 0 0
-4.06117e+10 1.0538e+10 2.75894e-08
1.53952e+11 1.652e+10 -5.80111e-07
1.61627e+12 3.20824e+11 1.92771e-07
6.79136e+12 1.76092e+12 -1.291e-07
1.7459e+13 -1.21258e+11 -6.26518e-06
-3.52712e+13 2.56201e+11 -6.16572e-06
2.40709e+13 1.39395e+10 9.90881e-05
-9.38358e+12 2.72495e+12 0.000342692
6.28051e+11 -4.03532e+12 -0.0022989
-8.98834e+12 -2.92837e+13 -0.00114271
5.83854e+13 -1.52833e+14 0.00258515
-8.97157e+13 8.42959e+12 -0.00078893
-2.99994e+14 -2.42332e+15 -0.00432031
7.91868e+14 -7.8168e+14 -0.0861641
1.03737e+14 2.42367e+15 0.0145145
-1.47857e+15 3.42325e+14 0.0347152
-4.7409e+15 6.15625e+15 0.0131557
-7.52662e+15 2.23074e+16 -0.00665542
1.83297e+15 -5.46961e+15 0.00467866
0.05 -7.50365e+17 0.151896
0 0 0
7.03775e+10 -3.61531e+11 -6.39288e-06
5.59135e+10 -1.05297e+11 -1.98278e-06
-1.88714e+10 1.65789e+10 -5.37829e-06
-6.92344e+10 2.58928e+11 5.48609e-05
5.07709e+10 1.26957e+13 2.50981e-05
-4.66453e+11 4.73344e+13 0.000105476
1.99171e+12 -1.46857e+14 0.000488287
-5.00559e+12 1.476e+15 -0.00156252
-3.38267e+11 1.1259e+14 -0.00463632
2.77771e+13 -1.33506e+13 0.00152656
3.38311e+13 -2.2518e+14 0.0163397
-5.15884e+14 1.68885e+15 -0.00457778
-1.2026e+14 -3.21692e+13 -0.00170762
1.31864e+13 1.60219e+14 -0.00923374
5.83115e+13 -7.03687e+12 -0.188314
-3.09163e+14 6.19668e+14 0.113757
-2.46291e+14 -8.07822e+15 -0.207999
1.31355e+15 1.96521e+16 -0.514226
-1.05535e+15 4.50635e+16 0.00729571
0.05 -1.45971e+17 0.143771
0 0 0
-1.30583e+10 6.02076e+10 6.83322e-07
-6.65097e+10 3.75244e+11 7.1919e-06
5.39371e+10 -9.98728e+11 -1.5068e-05
2.02162e+11 -4.58766e+12 -0.000146197
4.17779e+11 -1.55e+13 7.69699e-06
-3.20386e+11 -6.08706e+13 -3.39226e-06
1.88979e+12 -4.67488e+13 0.000110413
-4.00478e+12 -1.317e+14 0.00123425
-3.90327e+12 2.11106e+14 4.96646e-05
-1.68309e+13 -1.17469e+14 -0.00100276
3.20169e+12 -4.92581e+14 -0.00150182
-1.75922e+14 1.16108e+15 0.00660112
1.3818e+14 -9.81883e+14 -0.0288492
5.02408e+13 4.56635e+15 0.0685832
-9.51622e+12 -2.08739e+13 -0.0329776
5.85445e+13 -6.44225e+14 0.202315
1.1259e+15 7.85515e+14 -0.288899
7.59701e+13 -5.85768e+15 -2.05478
-1.45963e+15 -6.52872e+15 -0.32015
0.05 2.17138e+15 0.151637
0 0 0
1.8049e+10 -7.99387e+10 4.45951e-06
7.40866e+10 6.14237e+11 6.97929e-07
-1.90142e+10 -6.92921e+11 -5.50253e-07
4.58793e+10 -2.30004e+12 -2.67376e-05
6.9636e+11 -1.6442e+13 -3.02979e-05
-1.38512e+11 -2.47152e+13 2.23505e-06
7.75957e+11 -3.95204e+12 -1.45579e-05
-1.27287e+13 1.84257e+13 -0.00024221
5.90987e+12 -2.60781e+13 -0.000835555
1.8163e+13 -3.23676e+14 0.00191621
-9.29677e+12 8.04214e+14 -0.00825576
-4.10585e+14 6.21591e+14 0.000465277
-3.94065e+14 -7.16537e+14 0.0105722
-1.85149e+14 1.36447e+15 -0.00343666
-1.00512e+14 -6.93867e+14 7.67043e-05
3.08794e+14 -4.65055e+14 -0.0255468
-9.28867e+14 -7.75074e+14 0.16456
-5.14697e+15 4.38705e+14 0.223755
-1.09746e+15 1.25163e+15 -0.024405
0.05 -1.348e+15 0.215422
0 0 0
1.09464e+10 -1.90373e+11 2.82815e-06
1.81415e+10 -1.20605e+11 -3.42126e-06
-2.38307e+09 1.13138e+11 2.21518e-06
6.24699e+10 1.95911e+12 1.80148e-05
9.84929e+11 -3.27275e+12 4.10906e-05
-1.4691e+12 -4.28926e+12 2.62119e-06
-2.4739e+12 4.94144e+12 2.75058e-05
2.21512e+12 7.82388e+12 -9.75642e-05
6.09602e+12 1.03469e+12 -0.000194129
-2.36697e+13 1.69693e+14 -0.00126684
-1.62882e+13 -1.28033e+15 -0.000421607
-6.81825e+13 5.61442e+14 0.000201281
-2.27893e+14 -4.42757e+13 -0.00816445
1.7343e+14 -1.70402e+14 0.00677019
-1.04455e+14 1.15854e+14 0.0284082
-9.26689e+13 1.23176e+15 0.377465
1.34666e+14 1.74559e+15 -0.0889393
8.16277e+15 -4.22212e+15 -0.565125
-2.87153e+15 -6.26904e+15 0.65393
0.05 3.08973e+15 0.0143463
0 0 0
-1.07876e+09 3.54975e+11 -7.11201e-08
2.39736e+10 2.34499e+11 -1.23515e-06
2.61706e+10 7.33976e+10 4.89393e-07
3.57341e+11 1.64056e+11 -2.80606e-06
-1.53932e+12 5.36559e+11 1.63893e-05
-3.14146e+12 -2.18939e+11 -6.35263e-06
-2.82909e+12 -2.63646e+11 3.93194e-05
-1.90871e+13 -1.00844e+13 -2.9584e-05
-2.78068e+12 -2.74878e+13 0.000732495
-5.00889e+12 -2.97868e+13 0.00499105
2.22217e+13 -1.31941e+14 -0.00317876
-1.29009e+14 1.56256e+15 0.0122453
9.93959e+14 3.00666e+14 -0.0189473
-2.55087e+14 -2.17703e+14 -0.0340702
-6.80382e+14 -2.10435e+14 0.156867
-1.89151e+14 -2.07118e+15 -0.218512
-2.86689e+15 -7.44427e+15 -0.0132494
-2.63782e+16 1.5012e+15 -0.102883
-1.86864e+16 -6.36133e+16 0.286314
0.05 -3.0588e+16 0.566488
0 0 0
-3.48245e+10 4.69567e+10 2.85662e-08
-1.52828e+11 -1.55573e+11 5.12615e-08
1.27348e+11 -1.32466e+11 6.28416e-07
1.37366e+12 4.9883e+11 -7.8745e-07
6.88987e+12 -2.55323e+11 -7.43273e-06
-6.9512e+12 -2.79031e+10 6.68368e-06
-3.17487e+12 -1.11622e+12 -3.80504e-05
-6.12636e+11 2.42274e+12 8.68914e-05
5.07336e+10 1.39477e+12 -0.0015278
1.56202e+13 -6.54717e+13 0.00371331
4.32531e+13 -3.32473e+14 -0.000252398
-5.50127e+13 1.35577e+15 -5.99498e-05
-2.74211e+14 -3.18902e+14 -0.0282045
2.94807e+13 -7.91943e+14 0.19721
-1.57872e+15 7.06903e+13 0.0244789
-2.48945e+13 9.965e+14 0.0228542
9.21498e+14 -3.1572e+15 -0.00215529
3.70793e+15 -2.73381e+16 0.0450975
-5.56423e+15 4.37906e+16 0.143539
0.05 2.67927e+17 -0.245112
0 0 0
-4.06117e+10 1.0538e+10 2.75891e-08
1.53952e+11 1.652e+10 -5.80109e-07
1.61627e+12 3.20824e+11 1.92766e-07
6.79136e+12 1.76092e+12 -1.29079e-07
1.7459e+13 -1.21258e+11 -6.26526e-06
-3.52712e+13 2.56201e+11 -6.16543e-06
2.40709e+13 1.39395e+10 9.9087e-05
-9.38358e+12 2.72495e+12 0.000342696
6.28051e+11 -4.03532e+12 -0.00229892
-8.98834e+12 -2.92837e+13 -0.00114266
5.83854e+13 -1.52833e+14 0.00258495
-8.97157e+13 8.42959e+12 -0.000788166
-2.99994e+14 -2.42332e+15 -0.00432316
7.91868e+14 -7.8168e+14 -0.0861535
1.03737e+14 2.42367e+15 0.0144747
-1.47857e+15 3.42325e+14 0.0348635
-4.7409e+15 6.15625e+15 0.0126022
-7.52662e+15 2.23074e+16 -0.00458976
1.83297e+15 -5.46961e+15 -0.00303049
0.05 -7.50365e+17 0.143956
0 0 0
7.03775e+10 -3.61531e+11 -6.39288e-06
5.59135e+10 -1.05297e+11 -1.98278e-06
-1.88714e+10 1.65789e+10 -5.37829e-06
-6.92344e+10 2.58928e+11 5.48609e-05
5.07709e+10 1.26957e+13 2.5098e-05
-4.66453e+11 4.73344e+13 0.000105476
1.99171e+12 -1.46857e+14 0.000488285
-5.00559e+12 1.476e+15 -0.00156252
-3.38267e+11 1.1259e+14 -0.00463633
2.77771e+13 -1.33506e+13 0.00152662
3.38311e+13 -2.2518e+14 0.0163395
-5.15884e+14 1.68885e+15 -0.00457702
-1.2026e+14 -3.21692e+13 -0.00171047
1.31864e+13 1.60219e+14 -0.00922309
5.83115e+13 -7.03687e+12 -0.188353
-3.09163e+14 6.19668e+14 0.113905
-2.46291e+14 -8.07822e+15 -0.208552
1.31355e+15 1.96521e+16 -0.51216
-1.05535e+15 4.50635e+16 -0.000413434
0.05 -1.45971e+17 0.13583
0 0 0
-1.30583e+10 6.02076e+10 6.83321e-07
-6.65097e+10 3.75244e+11 7.1919e-06
5.39371e+10 -9.98728e+11 -1.5068e-05
2.02162e+11 -4.58766e+12 -0.000146197
4.17779e+11 -1.55e+13 7.69691e-06
-3.20386e+11 -6.08706e+13 -3.39197e-06
1.88979e+12 -4.67488e+13 0.000110412
-4.00478e+12 -1.317e+14 0.00123425
-3.90327e+12 2.11106e+14 4.96499e-05
-1.68309e+13 -1.17469e+14 -0.00100271
3.20169e+12 -4.92581e+14 -0.00150203
-1.75922e+14 1.16108e+15 0.00660189
1.3818e+14 -9.81883e+14 -0.0288521
5.02408e+13 4.56635e+15 0.0685938
-9.51622e+12 -2.08739e+13 -0.0330173
5.85445e+13 -6.44225e+14 0.202464
1.1259e+15 7.85515e+14 -0.289453
7.59701e+13 -5.85768e+15 -2.05271
-1.45963e+15 -6.52872e+15 -0.327859
0.05 2.17138e+15 0.143697
0 0 0
1.8049e+10 -7.99387e+10 4.45951e-06
7.40866e+10 6.14237e+11 6.97931e-07
-1.90142e+10 -6.92921e+11 -5.50259e-07
4.58793e+10 -2.30004e+12 -2.67376e-05
6.9636e+11 -1.6442e+13 -3.0298e-05
-1.38512e+11 -2.47152e+13 2.23533e-06
7.75957e+11 -3.95204e+12 -1.45589e-05
-1.27287e+13 1.84257e+13 -0.000242206
5.90987e+12 -2.60781e+13 -0.00083557
1.8163e+13 -3.23676e+14 0.00191627
-9.29677e+12 8.04214e+14 -0.00825596
-4.10585e+14 6.21591e+14 0.000466041
-3.94065e+14 -7.16537e+14 0.0105693
-1.85149e+14 1.36447e+15 -0.00342602
-1.00512e+14 -6.93867e+14 3.69654e-05
3.08794e+14 -4.65055e+14 -0.0253985
-9.28867e+14 -7.75074e+14 0.164007
-5.14697e+15 4.38705e+14 0.225821
-1.09746e+15 1.25163e+15 -0.0321142
0.05 -1.348e+15 0.207482
0 0 0
1.09464e+10 -1.90373e+11 2.82815e-06
1.81415e+10 -1.20605e+11 -3.42126e-06
-2.38307e+09 1.13138e+11 2.21518e-06
6.24699e+10 1.95911e+12 1.80148e-05
9.84929e+11 -3.27275e+12 4.10905e-05
-1.4691e+12 -4.28926e+12 2.62147e-06
-2.4739e+12 4.94144e+12 2.75047e-05
2.21512e+12 7.82388e+12 -9.75603e-05
6.09602e+12 1.03469e+12 -0.000194144
-2.36697e+13 1.69693e+14 -0.00126678
-1.62882e+13 -1.28033e+15 -0.000421812
-6.81825e+13 5.61442e+14 0.000202045
-2.27893e+14 -4.42757e+13 -0.0081673
1.7343e+14 -1.70402e+14 0.00678084
-1.04455e+14 1.15854e+14 0.0283685
-9.26689e+13 1.23176e+15 0.377614
1.34666e+14 1.74559e+15 -0.0894928
8.16277e+15 -4.22212e+15 -0.56306
-2.87153e+15 -6.26904e+15 0.646221
0.05 3.08973e+15 0.00640598
0 0 0
-1.07876e+09 3.54975e+11 -7.11205e-08
2.39736e+10 2.34499e+11 -1.23515e-06
2.61706e+10 7.33976e+10 4.89388e-07
3.57341e+11 1.64056e+11 -2.80604e-06
-1.53932e+12 5.36559e+11 1.63893e-05
-3.14146e+12 -2.18939e+11 -6.35234e-06
-2.82909e+12 -2.63646e+11 3.93183e-05
-1.90871e+13 -1.00844e+13 -2.958e-05
-2.78068e+12 -2.74878e+13 0.000732481
-5.00889e+12 -2.97868e+13 0.0049911
2.22217e+13 -1.31941e+14 -0.00317896
-1.29009e+14 1.56256e+15 0.0122461
9.93959e+14 3.00666e+14 -0.0189502
-2.55087e+14 -2.17703e+14 -0.0340595
-6.80382e+14 -2.10435e+14 0.156827
-1.89151e+14 -2.07118e+15 -0.218363
-2.86689e+15 -7.44427e+15 -0.0138029
-2.63782e+16 1.5012e+15 -0.100817
-1.86864e+16 -6.36133e+16 0.278604
0.05 -3.0588e+16 0.558547
0 0 0
-3.48245e+10 4.69567e+10 2.85658e-08
-1.52828e+11 -1.55573e+11 5.12629e-08
1.27348e+11 -1.32466e+11 6.28411e-07
1.37366e+12 4.9883e+11 -7.87429e-07
6.88987e+12 -2.55323e+11 -7.4328e-06
-6.9512e+12 -2.79031e+10 6.68396e-06
-3.17487e+12 -1.11622e+12 -3.80514e-05
-6.12636e+11 2.42274e+12 8.68954e-05
5.07336e+10 1.39477e+12 -0.00152782
1.56202e+13 -6.54717e+13 0.00371337
4.32531e+13 -3.32473e+14 -0.000252603
-5.50127e+13 1.35577e+15 -5.91853e-05
-2.74211e+14 -3.18902e+14 -0.0282074
2.94807e+13 -7.91943e+14 0.197221
-1.57872e+15 7.06903e+13 0.0244392
-2.48945e+13 9.965e+14 0.0230025
9.21498e+14 -3.1572e+15 -0.00270878
3.70793e+15 -2.73381e+16 0.0471632
-5.56423e+15 4.37906e+16 0.13583
0.05 2.67927e+17 -0.253052
0 0 0
-4.06117e+10 1.0538e+10 2.75887e-08
1.53952e+11 1.652e+10 -5.80108e-07
1.61627e+12 3.20824e+11 1.9276e-07
6.79136e+12 1.76092e+12 -1.29059e-07
1.7459e+13 -1.21258e+11 -6.26533e-06
-3.52712e+13 2.56201e+11 -6.16515e-06
2.40709e+13 1.39395e+10 9.90859e-05
-9.38358e+12 2.72495e+12 0.000342699
6.28051e+11 -4.03532e+12 -0.00229893
-8.98834e+12 -2.92837e+13 -0.0011426
5.83854e+13 -1.52833e+14 0.00258474
-8.97157e+13 8.42959e+12 -0.000787401
-2.99994e+14 -2.42332e+15 -0.00432601
7.91868e+14 -7.8168e+14 -0.0861428
1.03737e+14 2.42367e+15 0.014435
-1.47857e+15 3.42325e+14 0.0350118
-4.7409e+15 6.15625e+15 0.0120487
-7.52662e+15 2.23074e+16 -0.0025241
1.83297e+15 -5.46961e+15 -0.0107396
0.05 -7.50365e+17 0.136016
0 0 0
7.03775e+10 -3.61531e+11 -6.39288e-06
5.59135e+10 -1.05297e+11 -1.98278e-06
-1.88714e+10 1.65789e+10 -5.3783e-06
-6.92344e+10 2.58928e+11 5.4861e-05
5.07709e+10 1.26957e+13 2.50979e-05
-4.66453e+11 4.73344e+13 0.000105476
1.99171e+12 -1.46857e+14 0.000488284
-5.00559e+12 1.476e+15 -0.00156251
-3.38267e+11 1.1259e+14 -0.00463635
2.77771e+13 -1.33506e+13 0.00152667
3.38311e+13 -2.2518e+14 0.0163393
-5.15884e+14 1.68885e+15 -0.00457625
-1.2026e+14 -3.21692e+13 -0.00171332
1.31864e+13 1.60219e+14 -0.00921244
5.83115e+13 -7.03687e+12 -0.188393
-3.09163e+14 6.19668e+14 0.114053
-2.46291e+14 -8.07822e+15 -0.209106
1.31355e+15 1.96521e+16 -0.510095
-1.05535e+15 4.50635e+16 -0.00812258
0.05 -1.45971e+17 0.12789
0 0 0
-1.30583e+10 6.02076e+10 6.83321e-07
-6.65097e+10 3.75244e+11 7.1919e-06
5.39371e+10 -9.98728e+11 -1.5068e-05
2.02162e+11 -4.58766e+12 -0.000146197
4.17779e+11 -1.55e+13 7.69684e-06
-3.20386e+11 -6.08706e+13 -3.39169e-06
1.88979e+12 -4.67488e+13 0.000110411
-4.00478e+12 -1.317e+14 0.00123425
-3.90327e+12 2.11106e+14 4.96352e-05
-1.68309e+13 -1.17469e+14 -0.00100265
3.20169e+12 -4.92581e+14 -0.00150223
-1.75922e+14 1.16108e+15 0.00660265
1.3818e+14 -9.81883e+14 -0.0288549
5.02408e+13 4.56635e+15 0.0686045
-9.51622e+12 -2.08739e+13 -0.033057
5.85445e+13 -6.44225e+14 0.202612
1.1259e+15 7.85515e+14 -0.290006
7.59701e+13 -5.85768e+15 -2.05064
-1.45963e+15 -6.52872e+15 -0.335568
0.05 2.17138e+15 0.135756
0 0 0
1.8049e+10 -7.99387e+10 4.45951e-06
7.40866e+10 6.14237e+11 6.97932e-07
-1.90142e+10 -6.92921e+11 -5.50264e-07
4.58793e+10 -2.30004e+12 -2.67375e-05
6.9636e+11 -1.6442e+13 -3.02981e-05
-1.38512e+11 -2.47152e+13 2.23562e-06
7.75957e+11 -3.95204e+12 -1.456e-05
-1.27287e+13 1.84257e+13 -0.000242202
5.90987e+12 -2.60781e+13 -0.000835584
1.8163e+13 -3.23676e+14 0.00191632
-9.29677e+12 8.04214e+14 -0.00825617
-4.10585e+14 6.21591e+14 0.000466806
-3.94065e+14 -7.16537e+14 0.0105665
-1.85149e+14 1.36447e+15 -0.00341537
-1.00512e+14 -6.93867e+14 -2.7735e-06
3.08794e+14 -4.65055e+14 -0.0252501
-9.28867e+14 -7.75074e+14 0.163453
-5.14697e+15 4.38705e+14 0.227886
-1.09746e+15 1.25163e+15 -0.0398233
0.05 -1.348e+15 0.199541
0 0 0
1.09464e+10 -1.90373e+11 2.82815e-06
1.81415e+10 -1.20605e+11 -3.42126e-06
-2.38307e+09 1.13138e+11 2.21517e-06
6.24699e+10 1.95911e+12 1.80149e-05
9.84929e+11 -3.27275e+12 4.10904e-05
-1.4691e+12 -4.28926e+12 2.62176e-06
-2.4739e+12 4.94144e+12 2.75037e-05
2.21512e+12 7.82388e+12 -9.75564e-05
6.09602e+12 1.03469e+12 -0.000194159
-2.36697e+13 1.69693e+14 -0.00126673
-1.62882e+13 -1.28033e+15 -0.000422017
-6.81825e+13 5.61442e+14 0.00020281
-2.27893e+14 -4.42757e+13 -0.00817015
1.7343e+14 -1.70402e+14 0.00679149
-1.04455e+14 1.15854e+14 0.0283287
-9.26689e+13 1.23176e+15 0.377762
1.34666e+14 1.74559e+15 -0.0900463
8.16277e+15 -4.22212e+15 -0.560994
-2.87153e+15 -6.26904e+15 0.638512
0.05 3.08973e+15 -0.00153438
0 0 0
-1.07876e+09 3.54975e+11 -7.11209e-08
2.39736e+10 2.34499e+11 -1.23515e-06
2.61706e+10 7.33976e+10 4.89382e-07
3.57341e+11 1.64056e+11 -2.80602e-06
-1.53932e+12 5.36559e+11 1.63892e-05
-3.14146e+12 -2.18939e+11 -6.35206e-06
-2.82909e+12 -2.63646e+11 3.93173e-05
-1.90871e+13 -1.00844e+13 -2.95761e-05
-2.78068e+12 -2.74878e+13 0.000732466
-5.00889e+12 -2.97868e+13 0.00499115
2.22217e+13 -1.31941e+14 -0.00317917
-1.29009e+14 1.56256e+15 0.0122469
9.93959e+14 3.00666e+14 -0.018953
-2.55087e+14 -2.17703e+14 -0.0340489
-6.80382e+14 -2.10435e+14 0.156787
-1.89151e+14 -2.07118e+15 -0.218215
-2.86689e+15 -7.44427e+15 -0.0143564
-2.63782e+16 1.5012e+15 -0.0987516
-1.86864e+16 -6.36133e+16 0.270895
0.05 -3.0588e+16 0.550607
0 0 0
-3.48245e+10 4.69567e+10 2.85654e-08
-1.52828e+11 -1.55573e+11 5.12644e-08
1.27348e+11 -1.32466e+11 6.28405e-07
1.37366e+12 4.9883e+11 -7.87409e-07
6.88987e+12 -2.55323e+11 -7.43288e-06
-6.9512e+12 -2.79031e+10 6.68424e-06
-3.17487e+12 -1.11622e+12 -3.80525e-05
-6.12636e+11 2.42274e+12 8.68993e-05
5.07336e+10 1.39477e+12 -0.00152783
1.56202e+13 -6.54717e+13 0.00371342
4.32531e+13 -3.32473e+14 -0.000252808
-5.50127e+13 1.35577e+15 -5.84209e-05
-2.74211e+14 -3.18902e+14 -0.0282102
2.94807e+13 -7.91943e+14 0.197232
-1.57872e+15 7.06903e+13 0.0243995
-2.48945e+13 9.965e+14 0.0231508
9.21498e+14 -3.1572e+15 -0.00326227
3.70793e+15 -2.73381e+16 0.0492288
-5.56423e+15 4.37906e+16 0.12812
0.05 2.67927e+17 -0.260993
0 0 0
-4.06117e+10 1.0538e+10 2.75883e-08
1.53952e+11 1.652e+10 -5.80106e-07
1.61627e+12 3.20824e+11 1.92755e-07
6.79136e+12 1.76092e+12 -1.29039e-07
1.7459e+13 -1.21258e+11 -6.26541e-06
-3.52712e+13 2.56201e+11 -6.16487e-06
2.40709e+13 1.39395e+10 9.90849e-05
-9.38358e+12 2.72495e+12 0.000342703
6.28051e+11 -4.03532e+12 -0.00229895
-8.98834e+12 -2.92837e+13 -0.00114255