<?xml version="1.0"?>
<VTKFile type="UnstructuredGrid" version="0.1" byte_order="LittleEndian">
<UnstructuredGrid>
<Piece NumberOfPoints="1029" NumberOfCells="720">
<Points>
<DataArray type="Float32" NumberOfComponents="3" format="ascii">
0 0 0
0.005 0 0
0.01 0 0
0.015 0 0
0.02 0 0
0.025 0 0
0.03 0 0
0.035 0 0
0.04 0 0
0.045 0 0
0.05 0 0
0.055 0 0
0.06 0 0
0.065 0 0
0.07 0 0
0.075 0 0
0.08 0 0
0.085 0 0
0.09 0 0
0.095 0 0
0.1 0 0
0 0.005 0
0.005 0.005 0
0.01 0.005 0
0.015 0.005 0
0.02 0.005 0
0.025 0.005 0
0.03 0.005 0
0.035 0.005 0
0.04 0.005 0
0.045 0.005 0
0.05 0.005 0
0.055 0.005 0
0.06 0.005 0
0.065 0.005 0
0.07 0.005 0
0.075 0.005 0
0.08 0.005 0
0.085 0.005 0
0.09 0.005 0
0.095 0.005 0
0.1 0.005 0
0 0.01 0
0.005 0.01 0
0.01 0.01 0
0.015 0.01 0
0.02 0.01 0
0.025 0.01 0
0.03 0.01 0
0.035 0.01 0
0.04 0.01 0
0.045 0.01 0
0.05 0.01 0
0.055 0.01 0
0.06 0.01 0
0.065 0.01 0
0.07 0.01 0
0.075 0.01 0
0.08 0.01 0
0.085 0.01 0
0.09 0.01 0
0.095 0.01 0
0.1 0.01 0
0 0.015 0
0.005 0.015 0
0.01 0.015 0
0.015 0.015 0
0.02 0.015 0
0.025 0.015 0
0.03 0.015 0
0.035 0.015 0
0.04 0.015 0
0.045 0.015 0
0.05 0.015 0
0.055 0.015 0
0.06 0.015 0
0.065 0.015 0
0.07 0.015 0
0.075 0.015 0
0.08 0.015 0
0.085 0.015 0
0.09 0.015 0
0.095 0.015 0
0.1 0.015 0
0 0.02 0
0.005 0.02 0
0.01 0.02 0
0.015 0.02 0
0.02 0.02 0
0.025 0.02 0
0.03 0.02 0
0.035 0.02 0
0.04 0.02 0
0.045 0.02 0
0.05 0.02 0
0.055 0.02 0
0.06 0.02 0
0.065 0.02 0
0.07 0.02 0
0.075 0.02 0
0.08 0.02 0
0.085 0.02 0
0.09 0.02 0
0.095 0.02 0
0.1 0.02 0
0 0.025 0
0.005 0.025 0
0.01 0.025 0
0.015 0.025 0
0.02 0.025 0
0.025 0.025 0
0.03 0.025 0
0.035 0.025 0
0.04 0.025 0
0.045 0.025 0
0.05 0.025 0
0.055 0.025 0
0.06 0.025 0
0.065 0.025 0
0.07 0.025 0
0.075 0.025 0
0.08 0.025 0
0.085 0.025 0
0.09 0.025 0
0.095 0.025 0
0.1 0.025 0
0 0.03 0
0.005 0.03 0
0.01 0.03 0
0.015 0.03 0
0.02 0.03 0
0.025 0.03 0
0.03 0.03 0
0.035 0.03 0
0.04 0.03 0
0.045 0.03 0
0.05 0.03 0
0.055 0.03 0
0.06 0.03 0
0.065 0.03 0
0.07 0.03 0
0.075 0.03 0
0.08 0.03 0
0.085 0.03 0
0.09 0.03 0
0.095 0.03 0
0.1 0.03 0
0 0 0.005
0.005 0 0.005
0.01 0 0.005
0.015 0 0.005
0.02 0 0.005
0.025 0 0.005
0.03 0 0.005
0.035 0 0.005
0.04 0 0.005
0.045 0 0.005
0.05 0 0.005
0.055 0 0.005
0.06 0 0.005
0.065 0 0.005
0.07 0 0.005
0.075 0 0.005
0.08 0 0.005
0.085 0 0.005
0.09 0 0.005
0.095 0 0.005
0.1 0 0.005
0 0.005 0.005
0.005 0.005 0.005
0.01 0.005 0.005
0.015 0.005 0.005
0.02 0.005 0.005
0.025 0.005 0.005
0.03 0.005 0.005
0.035 0.005 0.005
0.04 0.005 0.005
0.045 0.005 0.005
0.05 0.005 0.005
0.055 0.005 0.005
0.06 0.005 0.005
0.065 0.005 0.005
0.07 0.005 0.005
0.075 0.005 0.005
0.08 0.005 0.005
0.085 0.005 0.005
0.09 0.005 0.005
0.095 0.005 0.005
0.1 0.005 0.005
0 0.01 0.005
0.005 0.01 0.005
0.01 0.01 0.005
0.015 0.01 0.005
0.02 0.01 0.005
0.025 0.01 0.005
0.03 0.01 0.005
0.035 0.01 0.005
0.04 0.01 0.005
0.045 0.01 0.005
0.05 0.01 0.005
0.055 0.01 0.005
0.06 0.01 0.005
0.065 0.01 0.005
0.07 0.01 0.005
0.075 0.01 0.005
0.08 0.01 0.005
0.085 0.01 0.005
0.09 0.01 0.005
0.095 0.01 0.005
0.1 0.01 0.005
0 0.015 0.005
0.005 0.015 0.005
0.01 0.015 0.005
0.015 0.015 0.005
0.02 0.015 0.005
0.025 0.015 0.005
0.03 0.015 0.005
0.035 0.015 0.005
0.04 0.015 0.005
0.045 0.015 0.005
0.05 0.015 0.005
0.055 0.015 0.005
0.06 0.015 0.005
0.065 0.015 0.005
0.07 0.015 0.005
0.075 0.015 0.005
0.08 0.015 0.005
0.085 0.015 0.005
0.09 0.015 0.005
0.095 0.015 0.005
0.1 0.015 0.005
0 0.02 0.005
0.005 0.02 0.005
0.01 0.02 0.005
0.015 0.02 0.005
0.02 0.02 0.005
0.025 0.02 0.005
0.03 0.02 0.005
0.035 0.02 0.005
0.04 0.02 0.005
0.045 0.02 0.005
0.05 0.02 0.005
0.055 0.02 0.005
0.06 0.02 0.005
0.065 0.02 0.005
0.07 0.02 0.005
0.075 0.02 0.005
0.08 0.02 0.005
0.085 0.02 0.005
0.09 0.02 0.005
0.095 0.02 0.005
0.1 0.02 0.005
0 0.025 0.005
0.005 0.025 0.005
0.01 0.025 0.005
0.015 0.025 0.005
0.02 0.025 0.005
0.025 0.025 0.005
0.03 0.025 0.005
0.035 0.025 0.005
0.04 0.025 0.005
0.045 0.025 0.005
0.05 0.025 0.005
0.055 0.025 0.005
0.06 0.025 0.005
0.065 0.025 0.005
0.07 0.025 0.005
0.075 0.025 0.005
0.08 0.025 0.005
0.085 0.025 0.005
0.09 0.025 0.005
0.095 0.025 0.005
0.1 0.025 0.005
0 0.03 0.005
0.005 0.03 0.005
0.01 0.03 0.005
0.015 0.03 0.005
0.02 0.03 0.005
0.025 0.03 0.005
0.03 0.03 0.005
0.035 0.03 0.005
0.04 0.03 0.005
0.045 0.03 0.005
0.05 0.03 0.005
0.055 0.03 0.005
0.06 0.03 0.005
0.065 0.03 0.005
0.07 0.03 0.005
0.075 0.03 0.005
0.08 0.03 0.005
0.085 0.03 0.005
0.09 0.03 0.005
0.095 0.03 0.005
0.1 0.03 0.005
0 0 0.01
0.005 0 0.01
0.01 0 0.01
0.015 0 0.01
0.02 0 0.01
0.025 0 0.01
0.03 0 0.01
0.035 0 0.01
0.04 0 0.01
0.045 0 0.01
0.05 0 0.01
0.055 0 0.01
0.06 0 0.01
0.065 0 0.01
0.07 0 0.01
0.075 0 0.01
0.08 0 0.01
0.085 0 0.01
0.09 0 0.01
0.095 0 0.01
0.1 0 0.01
0 0.005 0.01
0.005 0.005 0.01
0.01 0.005 0.01
0.015 0.005 0.01
0.02 0.005 0.01
0.025 0.005 0.01
0.03 0.005 0.01
0.035 0.005 0.01
0.04 0.005 0.01
0.045 0.005 0.01
0.05 0.005 0.01
0.055 0.005 0.01
0.06 0.005 0.01
0.065 0.005 0.01
0.07 0.005 0.01
0.075 0.005 0.01
0.08 0.005 0.01
0.085 0.005 0.01
0.09 0.005 0.01
0.095 0.005 0.01
0.1 0.005 0.01
0 0.01 0.01
0.005 0.01 0.01
0.01 0.01 0.01
0.015 0.01 0.01
0.02 0.01 0.01
0.025 0.01 0.01
0.03 0.01 0.01
0.035 0.01 0.01
0.04 0.01 0.01
0.045 0.01 0.01
0.05 0.01 0.01
0.055 0.01 0.01
0.06 0.01 0.01
0.065 0.01 0.01
0.07 0.01 0.01
0.075 0.01 0.01
0.08 0.01 0.01
0.085 0.01 0.01
0.09 0.01 0.01
0.095 0.01 0.01
0.1 0.01 0.01
0 0.015 0.01
0.005 0.015 0.01
0.01 0.015 0.01
0.015 0.015 0.01
0.02 0.015 0.01
0.025 0.015 0.01
0.03 0.015 0.01
0.035 0.015 0.01
0.04 0.015 0.01
0.045 0.015 0.01
0.05 0.015 0.01
0.055 0.015 0.01
0.06 0.015 0.01
0.065 0.015 0.01
0.07 0.015 0.01
0.075 0.015 0.01
0.08 0.015 0.01
0.085 0.015 0.01
0.09 0.015 0.01
0.095 0.015 0.01
0.1 0.015 0.01
0 0.02 0.01
0.005 0.02 0.01
0.01 0.02 0.01
0.015 0.02 0.01
0.02 0.02 0.01
0.025 0.02 0.01
0.03 0.02 0.01
0.035 0.02 0.01
0.04 0.02 0.01
0.045 0.02 0.01
0.05 0.02 0.01
0.055 0.02 0.01
0.06 0.02 0.01
0.065 0.02 0.01
0.07 0.02 0.01
0.075 0.02 0.01
0.08 0.02 0.01
0.085 0.02 0.01
0.09 0.02 0.01
0.095 0.02 0.01
0.1 0.02 0.01
0 0.025 0.01
0.005 0.025 0.01
0.01 0.025 0.01
0.015 0.025 0.01
0.02 0.025 0.01
0.025 0.025 0.01
0.03 0.025 0.01
0.035 0.025 0.01
0.04 0.025 0.01
0.045 0.025 0.01
0.05 0.025 0.01
0.055 0.025 0.01
0.06 0.025 0.01
0.065 0.025 0.01
0.07 0.025 0.01
0.075 0.025 0.01
0.08 0.025 0.01
0.085 0.025 0.01
0.09 0.025 0.01
0.095 0.025 0.01
0.1 0.025 0.01
0 0.03 0.01
0.005 0.03 0.01
0.01 0.03 0.01
0.015 0.03 0.01
0.02 0.03 0.01
0.025 0.03 0.01
0.03 0.03 0.01
0.035 0.03 0.01
0.04 0.03 0.01
0.045 0.03 0.01
0.05 0.03 0.01
0.055 0.03 0.01
0.06 0.03 0.01
0.065 0.03 0.01
0.07 0.03 0.01
0.075 0.03 0.01
0.08 0.03 0.01
0.085 0.03 0.01
0.09 0.03 0.01
0.095 0.03 0.01
0.1 0.03 0.01
0 0 0.015
0.005 0 0.015
0.01 0 0.015
0.015 0 0.015
0.02 0 0.015
0.025 0 0.015
0.03 0 0.015
0.035 0 0.015
0.04 0 0.015
0.045 0 0.015
0.05 0 0.015
0.055 0 0.015
0.06 0 0.015
0.065 0 0.015
0.07 0 0.015
0.075 0 0.015
0.08 0 0.015
0.085 0 0.015
0.09 0 0.015
0.095 0 0.015
0.1 0 0.015
0 0.005 0.015
0.005 0.005 0.015
0.01 0.005 0.015
0.015 0.005 0.015
0.02 0.005 0.015
0.025 0.005 0.015
0.03 0.005 0.015
0.035 0.005 0.015
0.04 0.005 0.015
0.045 0.005 0.015
0.05 0.005 0.015
0.055 0.005 0.015
0.06 0.005 0.015
0.065 0.005 0.015
0.07 0.005 0.015
0.075 0.005 0.015
0.08 0.005 0.015
0.085 0.005 0.015
0.09 0.005 0.015
0.095 0.005 0.015
0.1 0.005 0.015
0 0.01 0.015
0.005 0.01 0.015
0.01 0.01 0.015
0.015 0.01 0.015
0.02 0.01 0.015
0.025 0.01 0.015
0.03 0.01 0.015
0.035 0.01 0.015
0.04 0.01 0.015
0.045 0.01 0.015
0.05 0.01 0.015
0.055 0.01 0.015
0.06 0.01 0.015
0.065 0.01 0.015
0.07 0.01 0.015
0.075 0.01 0.015
0.08 0.01 0.015
0.085 0.01 0.015
0.09 0.01 0.015
0.095 0.01 0.015
0.1 0.01 0.015
0 0.015 0.015
0.005 0.015 0.015
0.01 0.015 0.015
0.015 0.015 0.015
0.02 0.015 0.015
0.025 0.015 0.015
0.03 0.015 0.015
0.035 0.015 0.015
0.04 0.015 0.015
0.045 0.015 0.015
0.05 0.015 0.015
0.055 0.015 0.015
0.06 0.015 0.015
0.065 0.015 0.015
0.07 0.015 0.015
0.075 0.015 0.015
0.08 0.015 0.015
0.085 0.015 0.015
0.09 0.015 0.015
0.095 0.015 0.015
0.1 0.015 0.015
0 0.02 0.015
0.005 0.02 0.015
0.01 0.02 0.015
0.015 0.02 0.015
0.02 0.02 0.015
0.025 0.02 0.015
0.03 0.02 0.015
0.035 0.02 0.015
0.04 0.02 0.015
0.045 0.02 0.015
0.05 0.02 0.015
0.055 0.02 0.015
0.06 0.02 0.015
0.065 0.02 0.015
0.07 0.02 0.015
0.075 0.02 0.015
0.08 0.02 0.015
0.085 0.02 0.015
0.09 0.02 0.015
0.095 0.02 0.015
0.1 0.02 0.015
0 0.025 0.015
0.005 0.025 0.015
0.01 0.025 0.015
0.015 0.025 0.015
0.02 0.025 0.015
0.025 0.025 0.015
0.03 0.025 0.015
0.035 0.025 0.015
0.04 0.025 0.015
0.045 0.025 0.015
0.05 0.025 0.015
0.055 0.025 0.015
0.06 0.025 0.015
0.065 0.025 0.015
0.07 0.025 0.015
0.075 0.025 0.015
0.08 0.025 0.015
0.085 0.025 0.015
0.09 0.025 0.015
0.095 0.025 0.015
0.1 0.025 0.015
0 0.03 0.015
0.005 0.03 0.015
0.01 0.03 0.015
0.015 0.03 0.015
0.02 0.03 0.015
0.025 0.03 0.015
0.03 0.03 0.015
0.035 0.03 0.015
0.04 0.03 0.015
0.045 0.03 0.015
0.05 0.03 0.015
0.055 0.03 0.015
0.06 0.03 0.015
0.065 0.03 0.015
0.07 0.03 0.015
0.075 0.03 0.015
0.08 0.03 0.015
0.085 0.03 0.015
0.09 0.03 0.015
0.095 0.03 0.015
0.1 0.03 0.015
0 0 0.02
0.005 0 0.02
0.01 0 0.02
0.015 0 0.02
0.02 0 0.02
0.025 0 0.02
0.03 0 0.02
0.035 0 0.02
0.04 0 0.02
0.045 0 0.02
0.05 0 0.02
0.055 0 0.02
0.06 0 0.02
0.065 0 0.02
0.07 0 0.02
0.075 0 0.02
0.08 0 0.02
0.085 0 0.02
0.09 0 0.02
0.095 0 0.02
0.1 0 0.02
0 0.005 0.02
0.005 0.005 0.02
0.01 0.005 0.02
0.015 0.005 0.02
0.02 0.005 0.02
0.025 0.005 0.02
0.03 0.005 0.02
0.035 0.005 0.02
0.04 0.005 0.02
0.045 0.005 0.02
0.05 0.005 0.02
0.055 0.005 0.02
0.06 0.005 0.02
0.065 0.005 0.02
0.07 0.005 0.02
0.075 0.005 0.02
0.08 0.005 0.02
0.085 0.005 0.02
0.09 0.005 0.02
0.095 0.005 0.02
0.1 0.005 0.02
0 0.01 0.02
0.005 0.01 0.02
0.01 0.01 0.02
0.015 0.01 0.02
0.02 0.01 0.02
0.025 0.01 0.02
0.03 0.01 0.02
0.035 0.01 0.02
0.04 0.01 0.02
0.045 0.01 0.02
0.05 0.01 0.02
0.055 0.01 0.02
0.06 0.01 0.02
0.065 0.01 0.02
0.07 0.01 0.02
0.075 0.01 0.02
0.08 0.01 0.02
0.085 0.01 0.02
0.09 0.01 0.02
0.095 0.01 0.02
[...]
<PointData Vectors="Displacement">
<DataArray type="Float32" Name="Displacement" NumberOfComponents="3" format="ascii">
0 0 0
0.00105347 0.00030297 0.00030297
0.00194782 0.0003757 0.0003757
0.00285385 0.000408625 0.000408625
0.00378429 0.000417377 0.000417377
0.00473106 0.000419051 0.000419051
0.0056865 0.000418624 0.000418624
0.00664575 0.000418015 0.000418015
0.00760641 0.000417616 0.000417616
0.00856749 0.000417421 0.000417421
0.00952864 0.000417357 0.000417357
0.0104898 0.00041738 0.00041738
0.0114508 0.000417485 0.000417485
0.0124115 0.000417681 0.000417681
0.0133713 0.00041791 0.00041791
0.0143289 0.000417792 0.000417792
0.015282 0.00041618 0.00041618
0.0162275 0.000409268 0.000409268
0.0171639 0.00039173 0.00039173
0.0181153 0.000322306 0.000322306
0.019 0.000269931 0.000269931
0 0 0
0.000970326 0.000160506 0.000304686
0.00190399 0.000248426 0.00038091
0.00283399 0.000273981 0.000410284
0.00377664 0.000280669 0.000418128
0.00472864 0.000280805 0.000419264
0.005686 0.000279793 0.000418667
0.00664579 0.000278964 0.000418007
0.00760653 0.000278507 0.000417602
0.00856757 0.000278304 0.000417411
0.00952866 0.000278243 0.00041735
0.0104897 0.00027827 0.000417373
0.0114508 0.000278388 0.000417479
0.0124115 0.000278632 0.000417685
0.0133717 0.000278998 0.000417952
0.0143306 0.000279253 0.000417956
0.0152867 0.000278267 0.000416609
0.0162387 0.000273111 0.000410488
0.0171882 0.000253754 0.000393832
0.0181407 0.000213456 0.000319951
0.019 0.00018771 0.000262316
0 0 0
0.000958074 7.26922e-05 0.000312953
0.00187498 0.000119479 0.000387525
0.00281487 0.000137759 0.00041437
0.00376674 0.000141332 0.000419821
0.00472444 0.000141097 0.000419875
0.0056845 0.000140241 0.000418827
0.00664539 0.000139628 0.000418023
0.00760648 0.000139304 0.000417585
0.00856759 0.000139165 0.000417393
0.00952868 0.000139125 0.000417336
0.0104898 0.000139145 0.000417363
0.0114508 0.000139228 0.000417476
0.0124119 0.000139404 0.000417712
0.0133727 0.00013969 0.000418083
0.014333 0.000139948 0.000418359
0.0152919 0.000139514 0.000417643
0.0162475 0.000135855 0.000412414
0.0171956 0.000124531 0.000395908
0.0181429 0.000106894 0.000316488
0.019 9.63904e-05 0.000252686
0 0 0
0.000954918 -2.92947e-20 0.000315355
0.00186805 -1.55222e-19 0.000390644
0.00280731 2.27902e-21 0.000416103
0.00376254 2.27935e-19 0.00042069
0.00472249 4.88586e-20 0.000420191
0.00568375 4.38626e-19 0.000418922
0.00664515 3.68413e-19 0.000418039
0.00760643 3.8207e-19 0.000417579
0.00856759 4.792e-20 0.000417385
0.00952869 4.2782e-19 0.00041733
0.0104898 5.04894e-19 0.000417358
0.0114509 1.60922e-20 0.000417476
0.012412 3.4592e-19 0.000417729
0.0133732 6.52081e-19 0.000418153
0.0143341 5.12602e-19 0.00041857
0.015294 7.31955e-19 0.000418112
0.0162501 7.0657e-19 0.000413232
0.0171968 3.14155e-19 0.000396326
0.0181427 5.21654e-20 0.000314982
0.019 4.33414e-19 0.00024954
0 0 0
0.000958074 -7.26922e-05 0.000312953
0.00187498 -0.000119479 0.000387525
0.00281487 -0.000137759 0.00041437
0.00376674 -0.000141332 0.000419821
0.00472444 -0.000141097 0.000419875
0.0056845 -0.000140241 0.000418827
0.00664539 -0.000139628 0.000418023
0.00760648 -0.000139304 0.000417585
0.00856759 -0.000139165 0.000417393
0.00952868 -0.000139125 0.000417336
0.0104898 -0.000139145 0.000417363
0.0114508 -0.000139228 0.000417476
0.0124119 -0.000139404 0.000417712
0.0133727 -0.00013969 0.000418083
0.014333 -0.000139948 0.000418359
0.0152919 -0.000139514 0.000417643
0.0162475 -0.000135855 0.000412414
0.0171956 -0.000124531 0.000395908
0.0181429 -0.000106894 0.000316488
0.019 -9.63904e-05 0.000252686
0 0 0
0.000970326 -0.000160506 0.000304686
0.00190399 -0.000248426 0.00038091
0.00283399 -0.000273981 0.000410284
0.00377664 -0.000280669 0.000418128
0.00472864 -0.000280805 0.000419264
0.005686 -0.000279793 0.000418667
0.00664579 -0.000278964 0.000418007
0.00760653 -0.000278507 0.000417602
0.00856757 -0.000278304 0.000417411
0.00952866 -0.000278243 0.00041735
0.0104897 -0.00027827 0.000417373
0.0114508 -0.000278388 0.000417479
0.0124115 -0.000278632 0.000417685
0.0133717 -0.000278998 0.000417952
0.0143306 -0.000279253 0.000417956
0.0152867 -0.000278267 0.000416609
0.0162387 -0.000273111 0.000410488
0.0171882 -0.000253754 0.000393832
0.0181407 -0.000213456 0.000319951
0.019 -0.00018771 0.000262316
0 0 0
0.00105347 -0.00030297 0.00030297
0.00194782 -0.0003757 0.0003757
0.00285385 -0.000408625 0.000408625
0.00378429 -0.000417377 0.000417377
0.00473106 -0.000419051 0.000419051
0.0056865 -0.000418624 0.000418624
0.00664575 -0.000418015 0.000418015
0.00760641 -0.000417616 0.000417616
0.00856749 -0.000417421 0.000417421
0.00952864 -0.000417357 0.000417357
0.0104898 -0.00041738 0.00041738
0.0114508 -0.000417485 0.000417485
0.0124115 -0.000417681 0.000417681
0.0133713 -0.00041791 0.00041791
0.0143289 -0.000417792 0.000417792
0.015282 -0.00041618 0.00041618
0.0162275 -0.000409268 0.000409268
0.0171639 -0.00039173 0.00039173
0.0181153 -0.000322306 0.000322306
0.019 -0.000269931 0.000269931
0 0 0
0.000970326 0.000304686 0.000160506
0.00190399 0.00038091 0.000248426
0.00283399 0.000410284 0.000273981
0.00377664 0.000418128 0.000280669
0.00472864 0.000419264 0.000280805
0.005686 0.000418667 0.000279793
0.00664579 0.000418007 0.000278964
0.00760653 0.000417602 0.000278507
0.00856757 0.000417411 0.000278304
0.00952866 0.00041735 0.000278243
0.0104897 0.000417373 0.00027827
0.0114508 0.000417479 0.000278388
0.0124115 0.000417685 0.000278632
0.0133717 0.000417952 0.000278998
0.0143306 0.000417956 0.000279253
0.0152867 0.000416609 0.000278267
0.0162387 0.000410488 0.000273111
0.0171882 0.000393832 0.000253754
0.0181407 0.000319951 0.000213456
0.019 0.000262316 0.00018771
0 0 0
0.00088454 0.000159682 0.000159682
0.00186053 0.000247938 0.000247938
0.00281533 0.000273713 0.000273713
0.00376954 0.00028047 0.00028047
0.00472649 0.000280724 0.000280724
0.0056856 0.000279759 0.000279759
0.00664587 0.000278954 0.000278954
0.00760666 0.000278505 0.000278505
0.00856764 0.000278304 0.000278304
0.00952868 0.000278243 0.000278243
0.0104897 0.00027827 0.00027827
0.0114507 0.000278386 0.000278386
0.0124116 0.000278624 0.000278624
0.0133721 0.000278978 0.000278978
0.0143321 0.000279207 0.000279207
0.0152911 0.000278191 0.000278191
0.0162496 0.000273075 0.000273075
0.0172136 0.00025373 0.00025373
0.0181679 0.000213263 0.000213263
0.019 0.000187049 0.000187049
0 0 0
0.000871789 7.10379e-05 0.000163128
0.00183181 0.000117911 0.000251961
0.00279688 0.00013679 0.000276067
0.00376025 0.000140863 0.000281505
0.0047226 0.000140905 0.00028108
0.00568424 0.000140179 0.00027985
0.00664551 0.000139614 0.00027896
0.00760662 0.000139304 0.000278493
0.00856767 0.000139169 0.000278293
0.0095287 0.000139128 0.000278235
0.0104897 0.000139147 0.000278264
0.0114508 0.000139226 0.000278383
0.0124119 0.000139391 0.000278639
0.0133731 0.000139646 0.000279055
0.0143344 0.000139833 0.000279456
0.0152961 0.000139272 0.000278814
0.0162585 0.000135468 0.000274234
0.0172219 0.000124287 0.000254511
0.0181711 0.000107397 0.000210977
0.019 9.73636e-05 0.00018185
0 0 0
0.000868214 -4.11466e-20 0.00016478
0.00182498 -1.06842e-19 0.000253823
0.00278965 1.05116e-19 0.000277298
0.00375629 2.25979e-19 0.00028208
0.00472078 1.50982e-19 0.000281296
0.00568354 4.56233e-19 0.000279911
0.00664529 2.68087e-19 0.000278969
0.00760657 2.94391e-19 0.000278488
0.00856767 7.62148e-20 0.000278287
0.00952871 4.34889e-19 0.000278231
0.0104897 2.72708e-19 0.00027826
0.0114508 7.75085e-20 0.000278383
0.012412 2.6419e-19 0.00027865
0.0133735 4.35824e-19 0.000279103
0.0143355 5.20648e-19 0.000279598
0.0152982 5.21454e-19 0.000279144
0.0162611 5.99098e-19 0.000274749
0.0172235 1.70895e-19 0.000254696
0.0181714 1.37751e-19 0.000209932
0.019 1.43871e-19 0.000179796
0 0 0
0.000871789 -7.10379e-05 0.000163128
0.00183181 -0.000117911 0.000251961
0.00279688 -0.00013679 0.000276067
0.00376025 -0.000140863 0.000281505
0.0047226 -0.000140905 0.00028108
0.00568424 -0.000140179 0.00027985
0.00664551 -0.000139614 0.00027896
0.00760662 -0.000139304 0.000278493
0.00856767 -0.000139169 0.000278293
0.0095287 -0.000139128 0.000278235
0.0104897 -0.000139147 0.000278264
0.0114508 -0.000139226 0.000278383
0.0124119 -0.000139391 0.000278639
0.0133731 -0.000139646 0.000279055
0.0143344 -0.000139833 0.000279456
0.0152961 -0.000139272 0.000278814
0.0162585 -0.000135468 0.000274234
0.0172219 -0.000124287 0.000254511
0.0181711 -0.000107397 0.000210977
0.019 -9.73636e-05 0.00018185
0 0 0
0.00088454 -0.000159682 0.000159682
0.00186053 -0.000247938 0.000247938
0.00281533 -0.000273713 0.000273713
0.00376954 -0.00028047 0.00028047
0.00472649 -0.000280724 0.000280724
0.0056856 -0.000279759 0.000279759
0.00664587 -0.000278954 0.000278954
0.00760666 -0.000278505 0.000278505
0.00856764 -0.000278304 0.000278304
0.00952868 -0.000278243 0.000278243
0.0104897 -0.00027827 0.00027827
0.0114507 -0.000278386 0.000278386
0.0124116 -0.000278624 0.000278624
0.0133721 -0.000278978 0.000278978
0.0143321 -0.000279207 0.000279207
0.0152911 -0.000278191 0.000278191
0.0162496 -0.000273075 0.000273075
0.0172136 -0.00025373 0.00025373
0.0181679 -0.000213263 0.000213263
0.019 -0.000187049 0.000187049
0 0 0
0.000970326 -0.000304686 0.000160506
0.00190399 -0.00038091 0.000248426
0.00283399 -0.000410284 0.000273981
0.00377664 -0.000418128 0.000280669
0.00472864 -0.000419264 0.000280805
0.005686 -0.000418667 0.000279793
0.00664579 -0.000418007 0.000278964
0.00760653 -0.000417602 0.000278507
0.00856757 -0.000417411 0.000278304
0.00952866 -0.00041735 0.000278243
0.0104897 -0.000417373 0.00027827
0.0114508 -0.000417479 0.000278388
0.0124115 -0.000417685 0.000278632
0.0133717 -0.000417952 0.000278998
0.0143306 -0.000417956 0.000279253
0.0152867 -0.000416609 0.000278267
0.0162387 -0.000410488 0.000273111
0.0171882 -0.000393832 0.000253754
0.0181407 -0.000319951 0.000213456
0.019 -0.000262316 0.00018771
0 0 0
0.000958074 0.000312953 7.26922e-05
0.00187498 0.000387525 0.000119479
0.00281487 0.00041437 0.000137759
0.00376674 0.000419821 0.000141332
0.00472444 0.000419875 0.000141097
0.0056845 0.000418827 0.000140241
0.00664539 0.000418023 0.000139628
0.00760648 0.000417585 0.000139304
0.00856759 0.000417393 0.000139165
0.00952868 0.000417336 0.000139125
0.0104898 0.000417363 0.000139145
0.0114508 0.000417476 0.000139228
0.0124119 0.000417712 0.000139404
0.0133727 0.000418083 0.00013969
0.014333 0.000418359 0.000139948
0.0152919 0.000417643 0.000139514
0.0162475 0.000412414 0.000135855
0.0171956 0.000395908 0.000124531
0.0181429 0.000316488 0.000106894
0.019 0.000252686 9.63904e-05
0 0 0
0.000871789 0.000163128 7.10379e-05
0.00183181 0.000251961 0.000117911
0.00279688 0.000276067 0.00013679
0.00376025 0.000281505 0.000140863
0.0047226 0.00028108 0.000140905
0.00568424 0.00027985 0.000140179
0.00664551 0.00027896 0.000139614
0.00760662 0.000278493 0.000139304
0.00856767 0.000278293 0.000139169
0.0095287 0.000278235 0.000139128
0.0104897 0.000278264 0.000139147
0.0114508 0.000278383 0.000139226
0.0124119 0.000278639 0.000139391
0.0133731 0.000279055 0.000139646
0.0143344 0.000279456 0.000139833
0.0152961 0.000278814 0.000139272
0.0162585 0.000274234 0.000135468
0.0172219 0.000254511 0.000124287
0.0181711 0.000210977 0.000107397
0.019 0.00018185 9.73636e-05
0 0 0
0.00085966 7.23943e-05 7.23943e-05
0.00180261 0.000119389 0.000119389
0.00277818 0.000137784 0.000137784
0.00375094 0.000141313 0.000141313
0.00471877 0.000141062 0.000141062
0.00568292 0.000140218 0.000140218
0.00664517 0.000139616 0.000139616
0.00760659 0.000139299 0.000139299
0.0085677 0.000139164 0.000139164
0.00952872 0.000139124 0.000139124
0.0104897 0.000139144 0.000139144
0.0114508 0.000139225 0.000139225
0.0124121 0.000139397 0.000139397
0.0133739 0.000139681 0.000139681
0.0143368 0.000139945 0.000139945
0.0153012 0.000139549 0.000139549
0.0162677 0.000135896 0.000135896
0.01723 0.00012444 0.00012444
0.0181734 0.000106469 0.000106469
0.019 9.54001e-05 9.54001e-05
0 0 0
0.000856268 2.34092e-20 7.30674e-05
0.00179575 -6.12651e-20 0.000120218
0.00277081 4.4949e-20 0.000138347
0.00374694 1.93673e-19 0.000141588
0.00471696 1.08171e-19 0.000141165
0.00568224 3.65332e-19 0.000140247
0.00664497 3.25394e-19 0.00013962
0.00760655 2.39236e-19 0.000139297
0.0085677 -8.14294e-20 0.000139161
0.00952873 5.1675e-19 0.000139122
0.0104898 4.67763e-19 0.000139142
0.0114509 1.20839e-19 0.000139225
0.0124123 3.73067e-19 0.000139403
0.0133744 5.34299e-19 0.000139704
0.0143378 6.18645e-19 0.000140015
0.0153033 4.82184e-19 0.000139704
0.0162703 3.87524e-19 0.000136115
0.0172315 2.22358e-19 0.000124481
0.0181734 1.56931e-19 0.000105985
0.019 -3.73408e-20 9.44715e-05
0 0 0
0.00085966 -7.23943e-05 7.23943e-05
0.00180261 -0.000119389 0.000119389
0.00277818 -0.000137784 0.000137784
0.00375094 -0.000141313 0.000141313
0.00471877 -0.000141062 0.000141062
0.00568292 -0.000140218 0.000140218
0.00664517 -0.000139616 0.000139616
0.00760659 -0.000139299 0.000139299
0.0085677 -0.000139164 0.000139164
0.00952872 -0.000139124 0.000139124
0.0104897 -0.000139144 0.000139144
0.0114508 -0.000139225 0.000139225
0.0124121 -0.000139397 0.000139397
0.0133739 -0.000139681 0.000139681
0.0143368 -0.000139945 0.000139945
0.0153012 -0.000139549 0.000139549
0.0162677 -0.000135896 0.000135896
0.01723 -0.00012444 0.00012444
0.0181734 -0.000106469 0.000106469
0.019 -9.54001e-05 9.54001e-05
0 0 0
0.000871789 -0.000163128 7.10379e-05
0.00183181 -0.000251961 0.000117911
0.00279688 -0.000276067 0.00013679
0.00376025 -0.000281505 0.000140863
0.0047226 -0.00028108 0.000140905
0.00568424 -0.00027985 0.000140179
0.00664551 -0.00027896 0.000139614
0.00760662 -0.000278493 0.000139304
0.00856767 -0.000278293 0.000139169
0.0095287 -0.000278235 0.000139128
0.0104897 -0.000278264 0.000139147
0.0114508 -0.000278383 0.000139226
0.0124119 -0.000278639 0.000139391
0.0133731 -0.000279055 0.000139646
0.0143344 -0.000279456 0.000139833
0.0152961 -0.000278814 0.000139272
0.0162585 -0.000274234 0.000135468
0.0172219 -0.000254511 0.000124287
0.0181711 -0.000210977 0.000107397
0.019 -0.00018185 9.73636e-05
0 0 0
0.000958074 -0.000312953 7.26922e-05
0.00187498 -0.000387525 0.000119479
0.00281487 -0.00041437 0.000137759
0.00376674 -0.000419821 0.000141332
0.00472444 -0.000419875 0.000141097
0.0056845 -0.000418827 0.000140241
0.00664539 -0.000418023 0.000139628
0.00760648 -0.000417585 0.000139304
0.00856759 -0.000417393 0.000139165
0.00952868 -0.000417336 0.000139125
0.0104898 -0.000417363 0.000139145
0.0114508 -0.000417476 0.000139228
0.0124119 -0.000417712 0.000139404
0.0133727 -0.000418083 0.00013969
0.014333 -0.000418359 0.000139948
0.0152919 -0.000417643 0.000139514
0.0162475 -0.000412414 0.000135855
0.0171956 -0.000395908 0.000124531
0.0181429 -0.000316488 0.000106894
0.019 -0.000252686 9.63904e-05
0 0 0
0.000954918 0.000315355 3.32235e-20
0.00186805 0.000390644 5.0964e-20
0.00280731 0.000416103 1.87236e-19
0.00376254 0.00042069 2.31503e-19
0.00472249 0.000420191 6.87276e-20
0.00568375 0.000418922 3.52937e-19
0.00664515 0.000418039 3.15664e-19
0.00760643 0.000417579 9.41682e-20
0.00856759 0.000417385 5.7807e-20
0.00952869 0.00041733 4.2575e-19
0.0104898 0.000417358 -9.54876e-20
0.0114509 0.000417476 1.06673e-19
0.012412 0.000417729 4.90871e-19
0.0133732 0.000418153 -8.7835e-19
0.0143341 0.00041857 -5.67575e-19
0.015294 0.000418112 -7.30343e-19
0.0162501 0.000413232 -6.9544e-19
0.0171968 0.000396326 -1.50911e-18
0.0181427 0.000314982 -2.08117e-18
0.019 0.00024954 -7.50769e-19
0 0 0
0.000868214 0.00016478 -6.93902e-21
0.00182498 0.000253823 1.17858e-19
0.00278965 0.000277298 2.2233e-19
0.00375629 0.00028208 2.50231e-19
0.00472078 0.000281296 2.70192e-19
0.00568354 0.000279911 4.85986e-20
0.00664529 0.000278969 2.68738e-19
0.00760657 0.000278488 2.34445e-19
0.00856767 0.000278287 1.54735e-19
0.00952871 0.000278231 3.53078e-19
0.0104897 0.00027826 1.80611e-19
0.0114508 0.000278383 -9.13059e-20
0.012412 0.00027865 2.32675e-19
0.0133735 0.000279103 -6.42865e-19
0.0143355 0.000279598 -7.21635e-19
0.0152982 0.000279144 -2.2641e-19
0.0162611 0.000274749 -8.09965e-19
0.0172235 0.000254696 -1.50537e-18
0.0181714 0.000209932 -1.53677e-18
0.019 0.000179796 -1.2227e-18
0 0 0
0.000856268 7.30674e-05 4.83638e-20
0.00179575 0.000120218 1.21898e-19
0.00277081 0.000138347 2.54978e-19
0.00374694 0.000141588 2.74237e-19
0.00471696 0.000141165 1.74189e-19
0.00568224 0.000140247 1.10637e-19
0.00664497 0.00013962 2.16348e-19
0.00760655 0.000139297 2.76269e-19
0.0085677 0.000139161 3.18289e-19
0.00952873 0.000139122 2.78328e-19
0.0104898 0.000139142 2.06152e-19
0.0114509 0.000139225 -2.36051e-19
0.0124123 0.000139403 2.87801e-19
0.0133744 0.000139704 -6.41325e-19
0.0143378 0.000140015 -4.6633e-19
0.0153033 0.000139704 -1.48908e-19
0.0162703 0.000136115 -8.12221e-19
0.0172315 0.000124481 -1.18414e-18
0.0181734 0.000105985 -1.42108e-18
0.019 9.44715e-05 -1.47819e-18
0 0 0
0.000852913 -6.69471e-20 4.8742e-20
0.00178885 -9.07031e-20 1.53218e-19
0.00276336 1.69268e-20 2.35185e-19
0.00374291 1.66677e-19 2.94241e-19
0.00471514 8.94755e-20 2.1357e-19
0.00568156 4.15371e-19 1.35324e-19
0.00664476 3.58904e-19 1.08168e-19
0.00760651 2.91598e-19 1.50762e-19
0.0085677 -1.37394e-19 -9.56351e-20
0.00952874 5.49105e-19 2.67748e-19
0.0104898 1.18409e-19 1.66528e-19
0.0114509 2.0528e-19 -3.05599e-19
0.0124125 4.39721e-19 2.32542e-19
0.0133748 6.27533e-19 -6.39643e-19
0.0143388 5.73012e-19 -6.37648e-19
0.0153055 2.27826e-19 -8.65991e-20
0.016273 4.4022e-19 -8.67539e-19
0.017233 1.13235e-19 -9.5451e-19
0.0181733 4.0111e-19 -1.73927e-18
0.019 -8.49368e-20 -1.4261e-18
0 0 0
0.000856268 -7.30674e-05 4.9743e-20
0.00179575 -0.000120218 1.87055e-19
0.00277081 -0.000138347 1.5283e-19
0.00374694 -0.000141588 2.32461e-19
0.00471696 -0.000141165 1.29173e-19
0.00568224 -0.000140247 1.04e-19
0.00664497 -0.00013962 1.36495e-19
0.00760655 -0.000139297 8.04013e-20
0.0085677 -0.000139161 7.56836e-20
0.00952873 -0.000139122 1.09221e-19
0.0104898 -0.000139142 -5.01857e-20
0.0114509 -0.000139225 -3.71299e-19
0.0124123 -0.000139403 1.55191e-19
0.0133744 -0.000139704 -8.5744e-19
0.0143378 -0.000140015 -5.99504e-19
0.0153033 -0.000139704 -1.37684e-19
0.0162703 -0.000136115 -4.34331e-19
0.0172315 -0.000124481 -1.18972e-18
0.0181734 -0.000105985 -1.46289e-18
0.019 -9.44715e-05 -1.38396e-18
0 0 0
0.000868214 -0.00016478 4.33372e-20
0.00182498 -0.000253823 6.94579e-20
0.00278965 -0.000277298 1.35474e-19
0.00375629 -0.00028208 1.94911e-19
0.00472078 -0.000281296 3.81488e-20
0.00568354 -0.000279911 1.00603e-19
0.00664529 -0.000278969 1.19124e-19
0.00760657 -0.000278488 6.13218e-20
0.00856767 -0.000278287 7.19539e-20
0.00952871 -0.000278231 1.82216e-19
0.0104897 -0.00027826 -2.02379e-19
0.0114508 -0.000278383 -6.5855e-19
0.012412 -0.00027865 3.78909e-20
0.0133735 -0.000279103 -9.38852e-19
0.0143355 -0.000279598 -5.76329e-19
0.0152982 -0.000279144 -3.85409e-20
0.0162611 -0.000274749 -5.89817e-19
0.0172235 -0.000254696 -9.46528e-19
0.0181714 -0.000209932 -1.61637e-18
0.019 -0.000179796 -1.57329e-18
0 0 0
0.000954918 -0.000315355 1.00523e-19
0.00186805 -0.000390644 1.77239e-19
0.00280731 -0.000416103 2.91256e-19
0.00376254 -0.00042069 2.77428e-19
0.00472249 -0.000420191 5.61616e-20
0.00568375 -0.000418922 -1.15365e-19
0.00664515 -0.000418039 4.58342e-19
0.00760643 -0.000417579 -4.35625e-21
0.00856759 -0.000417385 4.26172e-19
0.00952869 -0.00041733 5.77978e-20
0.0104898 -0.000417358 -1.66169e-19
0.0114509 -0.000417476 -6.7981e-19
0.012412 -0.000417729 -1.73759e-19
0.0133732 -0.000418153 -7.13867e-19
0.0143341 -0.00041857 -4.34395e-19
0.015294 -0.000418112 -1.81922e-20
0.0162501 -0.000413232 -1.07525e-19
0.0171968 -0.000396326 -1.39126e-18
0.0181427 -0.000314982 -1.57543e-18
0.019 -0.00024954 -2.34298e-18
0 0 0
0.000958074 0.000312953 -7.26922e-05
0.00187498 0.000387525 -0.000119479
0.00281487 0.00041437 -0.000137759
0.00376674 0.000419821 -0.000141332
0.00472444 0.000419875 -0.000141097
0.0056845 0.000418827 -0.000140241
0.00664539 0.000418023 -0.000139628
0.00760648 0.000417585 -0.000139304
0.00856759 0.000417393 -0.000139165
0.00952868 0.000417336 -0.000139125