<?xml version="1.0"?>
<VTKFile type="UnstructuredGrid" version="0.1" byte_order="LittleEndian">
<UnstructuredGrid>
<Piece NumberOfPoints="1029" NumberOfCells="720">
<Points>
<DataArray type="Float32" NumberOfComponents="3" format="ascii">
0 0 0
0.005 0 0
0.01 0 0
0.015 0 0
0.02 0 0
0.025 0 0
0.03 0 0
0.035 0 0
0.04 0 0
0.045 0 0
0.05 0 0
0.055 0 0
0.06 0 0
0.065 0 0
0.07 0 0
0.075 0 0
0.08 0 0
0.085 0 0
0.09 0 0
0.095 0 0
0.1 0 0
0 0.005 0
0.005 0.005 0
0.01 0.005 0
0.015 0.005 0
0.02 0.005 0
0.025 0.005 0
0.03 0.005 0
0.035 0.005 0
0.04 0.005 0
0.045 0.005 0
0.05 0.005 0
0.055 0.005 0
0.06 0.005 0
0.065 0.005 0
0.07 0.005 0
0.075 0.005 0
0.08 0.005 0
0.085 0.005 0
0.09 0.005 0
0.095 0.005 0
0.1 0.005 0
0 0.01 0
0.005 0.01 0
0.01 0.01 0
0.015 0.01 0
0.02 0.01 0
0.025 0.01 0
0.03 0.01 0
0.035 0.01 0
0.04 0.01 0
0.045 0.01 0
0.05 0.01 0
0.055 0.01 0
0.06 0.01 0
0.065 0.01 0
0.07 0.01 0
0.075 0.01 0
0.08 0.01 0
0.085 0.01 0
0.09 0.01 0
0.095 0.01 0
0.1 0.01 0
0 0.015 0
0.005 0.015 0
0.01 0.015 0
0.015 0.015 0
0.02 0.015 0
0.025 0.015 0
0.03 0.015 0
0.035 0.015 0
0.04 0.015 0
0.045 0.015 0
0.05 0.015 0
0.055 0.015 0
0.06 0.015 0
0.065 0.015 0
0.07 0.015 0
0.075 0.015 0
0.08 0.015 0
0.085 0.015 0
0.09 0.015 0
0.095 0.015 0
0.1 0.015 0
0 0.02 0
0.005 0.02 0
0.01 0.02 0
0.015 0.02 0
0.02 0.02 0
0.025 0.02 0
0.03 0.02 0
0.035 0.02 0
0.04 0.02 0
0.045 0.02 0
0.05 0.02 0
0.055 0.02 0
0.06 0.02 0
0.065 0.02 0
0.07 0.02 0
0.075 0.02 0
0.08 0.02 0
0.085 0.02 0
0.09 0.02 0
0.095 0.02 0
0.1 0.02 0
0 0.025 0
0.005 0.025 0
0.01 0.025 0
0.015 0.025 0
0.02 0.025 0
0.025 0.025 0
0.03 0.025 0
0.035 0.025 0
0.04 0.025 0
0.045 0.025 0
0.05 0.025 0
0.055 0.025 0
0.06 0.025 0
0.065 0.025 0
0.07 0.025 0
0.075 0.025 0
0.08 0.025 0
0.085 0.025 0
0.09 0.025 0
0.095 0.025 0
0.1 0.025 0
0 0.03 0
0.005 0.03 0
0.01 0.03 0
0.015 0.03 0
0.02 0.03 0
0.025 0.03 0
0.03 0.03 0
0.035 0.03 0
0.04 0.03 0
0.045 0.03 0
0.05 0.03 0
0.055 0.03 0
0.06 0.03 0
0.065 0.03 0
0.07 0.03 0
0.075 0.03 0
0.08 0.03 0
0.085 0.03 0
0.09 0.03 0
0.095 0.03 0
0.1 0.03 0
0 0 0.005
0.005 0 0.005
0.01 0 0.005
0.015 0 0.005
0.02 0 0.005
0.025 0 0.005
0.03 0 0.005
0.035 0 0.005
0.04 0 0.005
0.045 0 0.005
0.05 0 0.005
0.055 0 0.005
0.06 0 0.005
0.065 0 0.005
0.07 0 0.005
0.075 0 0.005
0.08 0 0.005
0.085 0 0.005
0.09 0 0.005
0.095 0 0.005
0.1 0 0.005
0 0.005 0.005
0.005 0.005 0.005
0.01 0.005 0.005
0.015 0.005 0.005
0.02 0.005 0.005
0.025 0.005 0.005
0.03 0.005 0.005
0.035 0.005 0.005
0.04 0.005 0.005
0.045 0.005 0.005
0.05 0.005 0.005
0.055 0.005 0.005
0.06 0.005 0.005
0.065 0.005 0.005
0.07 0.005 0.005
0.075 0.005 0.005
0.08 0.005 0.005
0.085 0.005 0.005
0.09 0.005 0.005
0.095 0.005 0.005
0.1 0.005 0.005
0 0.01 0.005
0.005 0.01 0.005
0.01 0.01 0.005
0.015 0.01 0.005
0.02 0.01 0.005
0.025 0.01 0.005
0.03 0.01 0.005
0.035 0.01 0.005
0.04 0.01 0.005
0.045 0.01 0.005
0.05 0.01 0.005
0.055 0.01 0.005
0.06 0.01 0.005
0.065 0.01 0.005
0.07 0.01 0.005
0.075 0.01 0.005
0.08 0.01 0.005
0.085 0.01 0.005
0.09 0.01 0.005
0.095 0.01 0.005
0.1 0.01 0.005
0 0.015 0.005
0.005 0.015 0.005
0.01 0.015 0.005
0.015 0.015 0.005
0.02 0.015 0.005
0.025 0.015 0.005
0.03 0.015 0.005
0.035 0.015 0.005
0.04 0.015 0.005
0.045 0.015 0.005
0.05 0.015 0.005
0.055 0.015 0.005
0.06 0.015 0.005
0.065 0.015 0.005
0.07 0.015 0.005
0.075 0.015 0.005
0.08 0.015 0.005
0.085 0.015 0.005
0.09 0.015 0.005
0.095 0.015 0.005
0.1 0.015 0.005
0 0.02 0.005
0.005 0.02 0.005
0.01 0.02 0.005
0.015 0.02 0.005
0.02 0.02 0.005
0.025 0.02 0.005
0.03 0.02 0.005
0.035 0.02 0.005
0.04 0.02 0.005
0.045 0.02 0.005
0.05 0.02 0.005
0.055 0.02 0.005
0.06 0.02 0.005
0.065 0.02 0.005
0.07 0.02 0.005
0.075 0.02 0.005
0.08 0.02 0.005
0.085 0.02 0.005
0.09 0.02 0.005
0.095 0.02 0.005
0.1 0.02 0.005
0 0.025 0.005
0.005 0.025 0.005
0.01 0.025 0.005
0.015 0.025 0.005
0.02 0.025 0.005
0.025 0.025 0.005
0.03 0.025 0.005
0.035 0.025 0.005
0.04 0.025 0.005
0.045 0.025 0.005
0.05 0.025 0.005
0.055 0.025 0.005
0.06 0.025 0.005
0.065 0.025 0.005
0.07 0.025 0.005
0.075 0.025 0.005
0.08 0.025 0.005
0.085 0.025 0.005
0.09 0.025 0.005
0.095 0.025 0.005
0.1 0.025 0.005
0 0.03 0.005
0.005 0.03 0.005
0.01 0.03 0.005
0.015 0.03 0.005
0.02 0.03 0.005
0.025 0.03 0.005
0.03 0.03 0.005
0.035 0.03 0.005
0.04 0.03 0.005
0.045 0.03 0.005
0.05 0.03 0.005
0.055 0.03 0.005
0.06 0.03 0.005
0.065 0.03 0.005
0.07 0.03 0.005
0.075 0.03 0.005
0.08 0.03 0.005
0.085 0.03 0.005
0.09 0.03 0.005
0.095 0.03 0.005
0.1 0.03 0.005
0 0 0.01
0.005 0 0.01
0.01 0 0.01
0.015 0 0.01
0.02 0 0.01
0.025 0 0.01
0.03 0 0.01
0.035 0 0.01
0.04 0 0.01
0.045 0 0.01
0.05 0 0.01
0.055 0 0.01
0.06 0 0.01
0.065 0 0.01
0.07 0 0.01
0.075 0 0.01
0.08 0 0.01
0.085 0 0.01
0.09 0 0.01
0.095 0 0.01
0.1 0 0.01
0 0.005 0.01
0.005 0.005 0.01
0.01 0.005 0.01
0.015 0.005 0.01
0.02 0.005 0.01
0.025 0.005 0.01
0.03 0.005 0.01
0.035 0.005 0.01
0.04 0.005 0.01
0.045 0.005 0.01
0.05 0.005 0.01
0.055 0.005 0.01
0.06 0.005 0.01
0.065 0.005 0.01
0.07 0.005 0.01
0.075 0.005 0.01
0.08 0.005 0.01
0.085 0.005 0.01
0.09 0.005 0.01
0.095 0.005 0.01
0.1 0.005 0.01
0 0.01 0.01
0.005 0.01 0.01
0.01 0.01 0.01
0.015 0.01 0.01
0.02 0.01 0.01
0.025 0.01 0.01
0.03 0.01 0.01
0.035 0.01 0.01
0.04 0.01 0.01
0.045 0.01 0.01
0.05 0.01 0.01
0.055 0.01 0.01
0.06 0.01 0.01
0.065 0.01 0.01
0.07 0.01 0.01
0.075 0.01 0.01
0.08 0.01 0.01
0.085 0.01 0.01
0.09 0.01 0.01
0.095 0.01 0.01
0.1 0.01 0.01
0 0.015 0.01
0.005 0.015 0.01
0.01 0.015 0.01
0.015 0.015 0.01
0.02 0.015 0.01
0.025 0.015 0.01
0.03 0.015 0.01
0.035 0.015 0.01
0.04 0.015 0.01
0.045 0.015 0.01
0.05 0.015 0.01
0.055 0.015 0.01
0.06 0.015 0.01
0.065 0.015 0.01
0.07 0.015 0.01
0.075 0.015 0.01
0.08 0.015 0.01
0.085 0.015 0.01
0.09 0.015 0.01
0.095 0.015 0.01
0.1 0.015 0.01
0 0.02 0.01
0.005 0.02 0.01
0.01 0.02 0.01
0.015 0.02 0.01
0.02 0.02 0.01
0.025 0.02 0.01
0.03 0.02 0.01
0.035 0.02 0.01
0.04 0.02 0.01
0.045 0.02 0.01
0.05 0.02 0.01
0.055 0.02 0.01
0.06 0.02 0.01
0.065 0.02 0.01
0.07 0.02 0.01
0.075 0.02 0.01
0.08 0.02 0.01
0.085 0.02 0.01
0.09 0.02 0.01
0.095 0.02 0.01
0.1 0.02 0.01
0 0.025 0.01
0.005 0.025 0.01
0.01 0.025 0.01
0.015 0.025 0.01
0.02 0.025 0.01
0.025 0.025 0.01
0.03 0.025 0.01
0.035 0.025 0.01
0.04 0.025 0.01
0.045 0.025 0.01
0.05 0.025 0.01
0.055 0.025 0.01
0.06 0.025 0.01
0.065 0.025 0.01
0.07 0.025 0.01
0.075 0.025 0.01
0.08 0.025 0.01
0.085 0.025 0.01
0.09 0.025 0.01
0.095 0.025 0.01
0.1 0.025 0.01
0 0.03 0.01
0.005 0.03 0.01
0.01 0.03 0.01
0.015 0.03 0.01
0.02 0.03 0.01
0.025 0.03 0.01
0.03 0.03 0.01
0.035 0.03 0.01
0.04 0.03 0.01
0.045 0.03 0.01
0.05 0.03 0.01
0.055 0.03 0.01
0.06 0.03 0.01
0.065 0.03 0.01
0.07 0.03 0.01
0.075 0.03 0.01
0.08 0.03 0.01
0.085 0.03 0.01
0.09 0.03 0.01
0.095 0.03 0.01
0.1 0.03 0.01
0 0 0.015
0.005 0 0.015
0.01 0 0.015
0.015 0 0.015
0.02 0 0.015
0.025 0 0.015
0.03 0 0.015
0.035 0 0.015
0.04 0 0.015
0.045 0 0.015
0.05 0 0.015
0.055 0 0.015
0.06 0 0.015
0.065 0 0.015
0.07 0 0.015
0.075 0 0.015
0.08 0 0.015
0.085 0 0.015
0.09 0 0.015
0.095 0 0.015
0.1 0 0.015
0 0.005 0.015
0.005 0.005 0.015
0.01 0.005 0.015
0.015 0.005 0.015
0.02 0.005 0.015
0.025 0.005 0.015
0.03 0.005 0.015
0.035 0.005 0.015
0.04 0.005 0.015
0.045 0.005 0.015
0.05 0.005 0.015
0.055 0.005 0.015
0.06 0.005 0.015
0.065 0.005 0.015
0.07 0.005 0.015
0.075 0.005 0.015
0.08 0.005 0.015
0.085 0.005 0.015
0.09 0.005 0.015
0.095 0.005 0.015
0.1 0.005 0.015
0 0.01 0.015
0.005 0.01 0.015
0.01 0.01 0.015
0.015 0.01 0.015
0.02 0.01 0.015
0.025 0.01 0.015
0.03 0.01 0.015
0.035 0.01 0.015
0.04 0.01 0.015
0.045 0.01 0.015
0.05 0.01 0.015
0.055 0.01 0.015
0.06 0.01 0.015
0.065 0.01 0.015
0.07 0.01 0.015
0.075 0.01 0.015
0.08 0.01 0.015
0.085 0.01 0.015
0.09 0.01 0.015
0.095 0.01 0.015
0.1 0.01 0.015
0 0.015 0.015
0.005 0.015 0.015
0.01 0.015 0.015
0.015 0.015 0.015
0.02 0.015 0.015
0.025 0.015 0.015
0.03 0.015 0.015
0.035 0.015 0.015
0.04 0.015 0.015
0.045 0.015 0.015
0.05 0.015 0.015
0.055 0.015 0.015
0.06 0.015 0.015
0.065 0.015 0.015
0.07 0.015 0.015
0.075 0.015 0.015
0.08 0.015 0.015
0.085 0.015 0.015
0.09 0.015 0.015
0.095 0.015 0.015
0.1 0.015 0.015
0 0.02 0.015
0.005 0.02 0.015
0.01 0.02 0.015
0.015 0.02 0.015
0.02 0.02 0.015
0.025 0.02 0.015
0.03 0.02 0.015
0.035 0.02 0.015
0.04 0.02 0.015
0.045 0.02 0.015
0.05 0.02 0.015
0.055 0.02 0.015
0.06 0.02 0.015
0.065 0.02 0.015
0.07 0.02 0.015
0.075 0.02 0.015
0.08 0.02 0.015
0.085 0.02 0.015
0.09 0.02 0.015
0.095 0.02 0.015
0.1 0.02 0.015
0 0.025 0.015
0.005 0.025 0.015
0.01 0.025 0.015
0.015 0.025 0.015
0.02 0.025 0.015
0.025 0.025 0.015
0.03 0.025 0.015
0.035 0.025 0.015
0.04 0.025 0.015
0.045 0.025 0.015
0.05 0.025 0.015
0.055 0.025 0.015
0.06 0.025 0.015
0.065 0.025 0.015
0.07 0.025 0.015
0.075 0.025 0.015
0.08 0.025 0.015
0.085 0.025 0.015
0.09 0.025 0.015
0.095 0.025 0.015
0.1 0.025 0.015
0 0.03 0.015
0.005 0.03 0.015
0.01 0.03 0.015
0.015 0.03 0.015
0.02 0.03 0.015
0.025 0.03 0.015
0.03 0.03 0.015
0.035 0.03 0.015
0.04 0.03 0.015
0.045 0.03 0.015
0.05 0.03 0.015
0.055 0.03 0.015
0.06 0.03 0.015
0.065 0.03 0.015
0.07 0.03 0.015
0.075 0.03 0.015
0.08 0.03 0.015
0.085 0.03 0.015
0.09 0.03 0.015
0.095 0.03 0.015
0.1 0.03 0.015
0 0 0.02
0.005 0 0.02
0.01 0 0.02
0.015 0 0.02
0.02 0 0.02
0.025 0 0.02
0.03 0 0.02
0.035 0 0.02
0.04 0 0.02
0.045 0 0.02
0.05 0 0.02
0.055 0 0.02
0.06 0 0.02
0.065 0 0.02
0.07 0 0.02
0.075 0 0.02
0.08 0 0.02
0.085 0 0.02
0.09 0 0.02
0.095 0 0.02
0.1 0 0.02
0 0.005 0.02
0.005 0.005 0.02
0.01 0.005 0.02
0.015 0.005 0.02
0.02 0.005 0.02
0.025 0.005 0.02
0.03 0.005 0.02
0.035 0.005 0.02
0.04 0.005 0.02
0.045 0.005 0.02
0.05 0.005 0.02
0.055 0.005 0.02
0.06 0.005 0.02
0.065 0.005 0.02
0.07 0.005 0.02
0.075 0.005 0.02
0.08 0.005 0.02
0.085 0.005 0.02
0.09 0.005 0.02
0.095 0.005 0.02
0.1 0.005 0.02
0 0.01 0.02
0.005 0.01 0.02
0.01 0.01 0.02
0.015 0.01 0.02
0.02 0.01 0.02
0.025 0.01 0.02
0.03 0.01 0.02
0.035 0.01 0.02
0.04 0.01 0.02
0.045 0.01 0.02
0.05 0.01 0.02
0.055 0.01 0.02
0.06 0.01 0.02
0.065 0.01 0.02
0.07 0.01 0.02
0.075 0.01 0.02
0.08 0.01 0.02
0.085 0.01 0.02
0.09 0.01 0.02
0.095 0.01 0.02
[...]
<PointData Vectors="Displacement">
<DataArray type="Float32" Name="Displacement" NumberOfComponents="3" format="ascii">
0 0 0
0.0014641 0.000449518 0.000449518
0.00272833 0.000547497 0.000547497
0.00401457 0.00059172 0.00059172
0.00533794 0.000602616 0.000602616
0.00668384 0.000604665 0.000604665
0.008041 0.000604185 0.000604185
0.00940273 0.000603544 0.000603544
0.010766 0.000603143 0.000603143
0.0121298 0.000602956 0.000602956
0.0134936 0.000602892 0.000602892
0.0148573 0.000602897 0.000602897
0.016221 0.000602958 0.000602958
0.0175845 0.000603079 0.000603079
0.0189473 0.000603227 0.000603227
0.0203084 0.000603117 0.000603117
0.0216658 0.00060187 0.00060187
0.0230166 0.000596218 0.000596218
0.0243589 0.000581837 0.000581837
0.0257114 0.000520483 0.000520483
0.027 0.000473207 0.000473207
0 0 0
0.00135133 0.000241687 0.000453298
0.00267111 0.000364117 0.000555342
0.00398973 0.000396876 0.000593971
0.00532876 0.000404862 0.000603597
0.00668106 0.000404776 0.00060491
0.00804043 0.000403555 0.000604228
0.00940276 0.000402648 0.000603531
0.0107662 0.000402183 0.000603128
0.0121298 0.000401989 0.000602946
0.0134936 0.000401929 0.000602886
0.0148573 0.000401939 0.000602892
0.016221 0.00040201 0.000602954
0.0175845 0.000402166 0.000603081
0.0189476 0.000402419 0.000603255
0.0203096 0.000402619 0.000603245
0.0216694 0.000401904 0.00060222
0.0230254 0.000397909 0.000597303
0.0243787 0.000381734 0.000583905
0.0257323 0.000345896 0.000518506
0.027 0.000322403 0.000466377
0 0 0
0.0013336 0.000109937 0.000468409
0.00263044 0.000176394 0.000565845
0.00396454 0.000199897 0.000599926
0.0053164 0.000203755 0.000605841
0.00667613 0.000203218 0.000605657
0.00803878 0.000202152 0.0006044
0.00940234 0.00020147 0.00060354
0.0107661 0.000201138 0.000603106
0.0121299 0.000201005 0.000602928
0.0134936 0.000200966 0.000602874
0.0148573 0.000200974 0.000602884
0.016221 0.000201024 0.00060295
0.0175847 0.00020114 0.000603098
0.0189483 0.000201343 0.000603351
0.0203115 0.000201554 0.000603564
0.0216735 0.000201301 0.000603111
0.0230327 0.000198498 0.000599092
0.0243849 0.000188921 0.000586155
0.0257339 0.000173053 0.000515533
0.027 0.000163409 0.000457482
0 0 0
0.00132907 5.85346e-20 0.000472865
0.00262032 -1.1474e-19 0.000570983
0.0039542 3.25558e-19 0.000602464
0.00531109 3.53632e-19 0.000607023
0.00667381 4.21788e-20 0.000606044
0.00803795 5.36005e-19 0.000604504
0.0094021 5.79067e-19 0.000603552
0.0107661 6.85973e-19 0.000603098
0.0121299 3.66656e-19 0.00060292
0.0134936 1.08924e-18 0.000602868
0.0148573 7.37063e-19 0.00060288
0.0162211 5.75785e-19 0.000602949
0.0175848 9.78408e-19 0.000603109
0.0189486 1.38682e-18 0.000603402
0.0203123 1.19598e-18 0.000603733
0.0216752 1.67765e-18 0.000603516
0.0230349 2.41175e-18 0.000599883
0.024386 1.96597e-18 0.000586671
0.0257337 2.15315e-18 0.000514222
0.027 2.92774e-18 0.000454568
0 0 0
0.0013336 -0.000109937 0.000468409
0.00263044 -0.000176394 0.000565845
0.00396454 -0.000199897 0.000599926
0.0053164 -0.000203755 0.000605841
0.00667613 -0.000203218 0.000605657
0.00803878 -0.000202152 0.0006044
0.00940234 -0.00020147 0.00060354
0.0107661 -0.000201138 0.000603106
0.0121299 -0.000201005 0.000602928
0.0134936 -0.000200966 0.000602874
0.0148573 -0.000200974 0.000602884
0.016221 -0.000201024 0.00060295
0.0175847 -0.00020114 0.000603098
0.0189483 -0.000201343 0.000603351
0.0203115 -0.000201554 0.000603564
0.0216735 -0.000201301 0.000603111
0.0230327 -0.000198498 0.000599092
0.0243849 -0.000188921 0.000586155
0.0257339 -0.000173053 0.000515533
0.027 -0.000163409 0.000457482
0 0 0
0.00135133 -0.000241687 0.000453298
0.00267111 -0.000364117 0.000555342
0.00398973 -0.000396876 0.000593971
0.00532876 -0.000404862 0.000603597
0.00668106 -0.000404776 0.00060491
0.00804043 -0.000403555 0.000604228
0.00940276 -0.000402648 0.000603531
0.0107662 -0.000402183 0.000603128
0.0121298 -0.000401989 0.000602946
0.0134936 -0.000401929 0.000602886
0.0148573 -0.000401939 0.000602892
0.016221 -0.00040201 0.000602954
0.0175845 -0.000402166 0.000603081
0.0189476 -0.000402419 0.000603255
0.0203096 -0.000402619 0.000603245
0.0216694 -0.000401904 0.00060222
0.0230254 -0.000397909 0.000597303
0.0243787 -0.000381734 0.000583905
0.0257323 -0.000345896 0.000518506
0.027 -0.000322403 0.000466377
0 0 0
0.0014641 -0.000449518 0.000449518
0.00272833 -0.000547497 0.000547497
0.00401457 -0.00059172 0.00059172
0.00533794 -0.000602616 0.000602616
0.00668384 -0.000604665 0.000604665
0.008041 -0.000604185 0.000604185
0.00940273 -0.000603544 0.000603544
0.010766 -0.000603143 0.000603143
0.0121298 -0.000602956 0.000602956
0.0134936 -0.000602892 0.000602892
0.0148573 -0.000602897 0.000602897
0.016221 -0.000602958 0.000602958
0.0175845 -0.000603079 0.000603079
0.0189473 -0.000603227 0.000603227
0.0203084 -0.000603117 0.000603117
0.0216658 -0.00060187 0.00060187
0.0230166 -0.000596218 0.000596218
0.0243589 -0.000581837 0.000581837
0.0257114 -0.000520483 0.000520483
0.027 -0.000473207 0.000473207
0 0 0
0.00135133 0.000453298 0.000241687
0.00267111 0.000555342 0.000364117
0.00398973 0.000593971 0.000396876
0.00532876 0.000603597 0.000404862
0.00668106 0.00060491 0.000404776
0.00804043 0.000604228 0.000403555
0.00940276 0.000603531 0.000402648
0.0107662 0.000603128 0.000402183
0.0121298 0.000602946 0.000401989
0.0134936 0.000602886 0.000401929
0.0148573 0.000602892 0.000401939
0.016221 0.000602954 0.00040201
0.0175845 0.000603081 0.000402166
0.0189476 0.000603255 0.000402419
0.0203096 0.000603245 0.000402619
0.0216694 0.00060222 0.000401904
0.0230254 0.000597303 0.000397909
0.0243787 0.000583905 0.000381734
0.0257323 0.000518506 0.000345896
0.027 0.000466377 0.000322403
0 0 0
0.00123411 0.000240416 0.000240416
0.0026149 0.00036356 0.00036356
0.00396666 0.000396529 0.000396529
0.0053203 0.000404613 0.000404613
0.00667861 0.000404681 0.000404681
0.00803998 0.000403516 0.000403516
0.00940282 0.000402637 0.000402637
0.0107663 0.000402181 0.000402181
0.0121299 0.00040199 0.00040199
0.0134936 0.00040193 0.00040193
0.0148573 0.000401939 0.000401939
0.016221 0.000402009 0.000402009
0.0175845 0.000402161 0.000402161
0.0189479 0.000402405 0.000402405
0.0203107 0.000402585 0.000402585
0.0216727 0.000401845 0.000401845
0.0230338 0.000397896 0.000397896
0.0243995 0.000381737 0.000381737
0.0257547 0.000345685 0.000345685
0.027 0.000321651 0.000321651
0 0 0
0.00121581 0.000107149 0.000247
0.00257483 0.000173968 0.000370245
0.00394254 0.00019854 0.000400065
0.00530882 0.000203142 0.000406035
0.00667406 0.000202987 0.000405126
0.00803848 0.000202084 0.000403617
0.00940245 0.000201456 0.000402639
0.0107662 0.000201139 0.000402166
0.0121299 0.000201009 0.000401978
0.0134936 0.000200969 0.000401922
0.0148573 0.000200976 0.000401934
0.016221 0.000201024 0.000402006
0.0175847 0.000201131 0.000402171
0.0189485 0.000201312 0.000402462
0.0203125 0.000201465 0.000402788
0.0216766 0.0002011 0.000402395
0.0230411 0.000198146 0.000399018
0.0244063 0.000188647 0.000382662
0.0257572 0.000173448 0.000343688
0.027 0.000164201 0.000316801
0 0 0
0.00121068 1.7372e-20 0.000250043
0.00256498 -9.31301e-21 0.000373404
0.00393274 2.43604e-19 0.000401937
0.00530384 3.4462e-19 0.000406834
0.00667192 2.69248e-19 0.0004054
0.00803771 5.46257e-19 0.000403686
0.00940223 5.24714e-19 0.000402646
0.0107662 7.11394e-19 0.00040216
0.0121299 4.05208e-19 0.000401972
0.0134936 1.05534e-18 0.000401919
0.0148573 8.24579e-19 0.000401931
0.016221 5.50195e-19 0.000402005
0.0175848 1.39985e-18 0.000402178
0.0189488 1.55262e-18 0.000402499
0.0203132 1.19725e-18 0.000402905
0.0216783 1.51353e-18 0.000402691
0.0230433 2.13718e-18 0.00039953
0.0244077 2.20906e-18 0.000382924
0.0257573 2.19783e-18 0.00034277
0.027 2.34204e-18 0.000314886
0 0 0
0.00121581 -0.000107149 0.000247
0.00257483 -0.000173968 0.000370245
0.00394254 -0.00019854 0.000400065
0.00530882 -0.000203142 0.000406035
0.00667406 -0.000202987 0.000405126
0.00803848 -0.000202084 0.000403617
0.00940245 -0.000201456 0.000402639
0.0107662 -0.000201139 0.000402166
0.0121299 -0.000201009 0.000401978
0.0134936 -0.000200969 0.000401922
0.0148573 -0.000200976 0.000401934
0.016221 -0.000201024 0.000402006
0.0175847 -0.000201131 0.000402171
0.0189485 -0.000201312 0.000402462
0.0203125 -0.000201465 0.000402788
0.0216766 -0.0002011 0.000402395
0.0230411 -0.000198146 0.000399018
0.0244063 -0.000188647 0.000382662
0.0257572 -0.000173448 0.000343688
0.027 -0.000164201 0.000316801
0 0 0
0.00123411 -0.000240416 0.000240416
0.0026149 -0.00036356 0.00036356
0.00396666 -0.000396529 0.000396529
0.0053203 -0.000404613 0.000404613
0.00667861 -0.000404681 0.000404681
0.00803998 -0.000403516 0.000403516
0.00940282 -0.000402637 0.000402637
0.0107663 -0.000402181 0.000402181
0.0121299 -0.00040199 0.00040199
0.0134936 -0.00040193 0.00040193
0.0148573 -0.000401939 0.000401939
0.016221 -0.000402009 0.000402009
0.0175845 -0.000402161 0.000402161
0.0189479 -0.000402405 0.000402405
0.0203107 -0.000402585 0.000402585
0.0216727 -0.000401845 0.000401845
0.0230338 -0.000397896 0.000397896
0.0243995 -0.000381737 0.000381737
0.0257547 -0.000345685 0.000345685
0.027 -0.000321651 0.000321651
0 0 0
0.00135133 -0.000453298 0.000241687
0.00267111 -0.000555342 0.000364117
0.00398973 -0.000593971 0.000396876
0.00532876 -0.000603597 0.000404862
0.00668106 -0.00060491 0.000404776
0.00804043 -0.000604228 0.000403555
0.00940276 -0.000603531 0.000402648
0.0107662 -0.000603128 0.000402183
0.0121298 -0.000602946 0.000401989
0.0134936 -0.000602886 0.000401929
0.0148573 -0.000602892 0.000401939
0.016221 -0.000602954 0.00040201
0.0175845 -0.000603081 0.000402166
0.0189476 -0.000603255 0.000402419
0.0203096 -0.000603245 0.000402619
0.0216694 -0.00060222 0.000401904
0.0230254 -0.000597303 0.000397909
0.0243787 -0.000583905 0.000381734
0.0257323 -0.000518506 0.000345896
0.027 -0.000466377 0.000322403
0 0 0
0.0013336 0.000468409 0.000109937
0.00263044 0.000565845 0.000176394
0.00396454 0.000599926 0.000199897
0.0053164 0.000605841 0.000203755
0.00667613 0.000605657 0.000203218
0.00803878 0.0006044 0.000202152
0.00940234 0.00060354 0.00020147
0.0107661 0.000603106 0.000201138
0.0121299 0.000602928 0.000201005
0.0134936 0.000602874 0.000200966
0.0148573 0.000602884 0.000200974
0.016221 0.00060295 0.000201024
0.0175847 0.000603098 0.00020114
0.0189483 0.000603351 0.000201343
0.0203115 0.000603564 0.000201554
0.0216735 0.000603111 0.000201301
0.0230327 0.000599092 0.000198498
0.0243849 0.000586155 0.000188921
0.0257339 0.000515533 0.000173053
0.027 0.000457482 0.000163409
0 0 0
0.00121581 0.000247 0.000107149
0.00257483 0.000370245 0.000173968
0.00394254 0.000400065 0.00019854
0.00530882 0.000406035 0.000203142
0.00667406 0.000405126 0.000202987
0.00803848 0.000403617 0.000202084
0.00940245 0.000402639 0.000201456
0.0107662 0.000402166 0.000201139
0.0121299 0.000401978 0.000201009
0.0134936 0.000401922 0.000200969
0.0148573 0.000401934 0.000200976
0.016221 0.000402006 0.000201024
0.0175847 0.000402171 0.000201131
0.0189485 0.000402462 0.000201312
0.0203125 0.000402788 0.000201465
0.0216766 0.000402395 0.0002011
0.0230411 0.000399018 0.000198146
0.0244063 0.000382662 0.000188647
0.0257572 0.000343688 0.000173448
0.027 0.000316801 0.000164201
0 0 0
0.00119853 0.000109773 0.000109773
0.00253378 0.00017654 0.00017654
0.00391809 0.000200094 0.000200094
0.00529733 0.000203774 0.000203774
0.00666963 0.000203186 0.000203186
0.00803705 0.000202127 0.000202127
0.00940211 0.000201456 0.000201456
0.0107662 0.000201132 0.000201132
0.01213 0.000201003 0.000201003
0.0134936 0.000200965 0.000200965
0.0148573 0.000200973 0.000200973
0.0162211 0.000201022 0.000201022
0.0175849 0.000201135 0.000201135
0.0189491 0.000201338 0.000201338
0.0203142 0.000201558 0.000201558
0.0216806 0.000201352 0.000201352
0.0230488 0.000198581 0.000198581
0.0244131 0.000188882 0.000188882
0.0257588 0.000172617 0.000172617
0.027 0.00016233 0.00016233
0 0 0
0.00119369 9.56601e-21 0.00011104
0.00252381 -6.67634e-20 0.000177967
0.00390804 2.40663e-19 0.000200972
0.00529233 4.69104e-19 0.000204164
0.0066675 2.84083e-19 0.000203317
0.0080363 5.37539e-19 0.00020216
0.0094019 5.59752e-19 0.000201459
0.0107662 7.43604e-19 0.000201129
0.01213 4.89407e-19 0.000201
0.0134937 9.79926e-19 0.000200964
0.0148573 9.9084e-19 0.000200972
0.0162211 7.88225e-19 0.000201022
0.017585 1.26724e-18 0.000201139
0.0189495 1.61098e-18 0.000201355
0.020315 1.53495e-18 0.000201616
0.0216823 1.57233e-18 0.000201493
0.023051 2.1467e-18 0.000198805
0.0244144 2.3097e-18 0.000188964
0.0257587 2.46289e-18 0.000172187
0.027 1.99491e-18 0.000161459
0 0 0
0.00119853 -0.000109773 0.000109773
0.00253378 -0.00017654 0.00017654
0.00391809 -0.000200094 0.000200094
0.00529733 -0.000203774 0.000203774
0.00666963 -0.000203186 0.000203186
0.00803705 -0.000202127 0.000202127
0.00940211 -0.000201456 0.000201456
0.0107662 -0.000201132 0.000201132
0.01213 -0.000201003 0.000201003
0.0134936 -0.000200965 0.000200965
0.0148573 -0.000200973 0.000200973
0.0162211 -0.000201022 0.000201022
0.0175849 -0.000201135 0.000201135
0.0189491 -0.000201338 0.000201338
0.0203142 -0.000201558 0.000201558
0.0216806 -0.000201352 0.000201352
0.0230488 -0.000198581 0.000198581
0.0244131 -0.000188882 0.000188882
0.0257588 -0.000172617 0.000172617
0.027 -0.00016233 0.00016233
0 0 0
0.00121581 -0.000247 0.000107149
0.00257483 -0.000370245 0.000173968
0.00394254 -0.000400065 0.00019854
0.00530882 -0.000406035 0.000203142
0.00667406 -0.000405126 0.000202987
0.00803848 -0.000403617 0.000202084
0.00940245 -0.000402639 0.000201456
0.0107662 -0.000402166 0.000201139
0.0121299 -0.000401978 0.000201009
0.0134936 -0.000401922 0.000200969
0.0148573 -0.000401934 0.000200976
0.016221 -0.000402006 0.000201024
0.0175847 -0.000402171 0.000201131
0.0189485 -0.000402462 0.000201312
0.0203125 -0.000402788 0.000201465
0.0216766 -0.000402395 0.0002011
0.0230411 -0.000399018 0.000198146
0.0244063 -0.000382662 0.000188647
0.0257572 -0.000343688 0.000173448
0.027 -0.000316801 0.000164201
0 0 0
0.0013336 -0.000468409 0.000109937
0.00263044 -0.000565845 0.000176394
0.00396454 -0.000599926 0.000199897
0.0053164 -0.000605841 0.000203755
0.00667613 -0.000605657 0.000203218
0.00803878 -0.0006044 0.000202152
0.00940234 -0.00060354 0.00020147
0.0107661 -0.000603106 0.000201138
0.0121299 -0.000602928 0.000201005
0.0134936 -0.000602874 0.000200966
0.0148573 -0.000602884 0.000200974
0.016221 -0.00060295 0.000201024
0.0175847 -0.000603098 0.00020114
0.0189483 -0.000603351 0.000201343
0.0203115 -0.000603564 0.000201554
0.0216735 -0.000603111 0.000201301
0.0230327 -0.000599092 0.000198498
0.0243849 -0.000586155 0.000188921
0.0257339 -0.000515533 0.000173053
0.027 -0.000457482 0.000163409
0 0 0
0.00132907 0.000472865 -1.39571e-19
0.00262032 0.000570983 7.46708e-20
0.0039542 0.000602464 1.44062e-19
0.00531109 0.000607023 -2.66623e-19
0.00667381 0.000606044 -2.23339e-19
0.00803795 0.000604504 -5.9139e-19
0.0094021 0.000603552 -3.43172e-19
0.0107661 0.000603098 -5.31209e-19
0.0121299 0.00060292 -5.7102e-19
0.0134936 0.000602868 3.59839e-20
0.0148573 0.00060288 -3.46779e-19
0.0162211 0.000602949 -7.76718e-19
0.0175848 0.000603109 1.16023e-18
0.0189486 0.000603402 -5.5959e-19
0.0203123 0.000603733 1.2133e-19
0.0216752 0.000603516 7.32634e-19
0.0230349 0.000599883 -2.58051e-20
0.024386 0.000586671 -3.91559e-19
0.0257337 0.000514222 -5.48418e-19
0.027 0.000454568 9.8301e-19
0 0 0
0.00121068 0.000250043 -6.8127e-20
0.00256498 0.000373404 -1.09384e-19
0.00393274 0.000401937 -7.02701e-21
0.00530384 0.000406834 -1.21945e-19
0.00667192 0.0004054 -2.87006e-19
0.00803771 0.000403686 -4.21438e-19
0.00940223 0.000402646 -3.86497e-19
0.0107662 0.00040216 -2.90569e-19
0.0121299 0.000401972 -2.55259e-19
0.0134936 0.000401919 -8.12381e-21
0.0148573 0.000401931 -2.98272e-19
0.016221 0.000402005 -1.87536e-19
0.0175848 0.000402178 5.32678e-19
0.0189488 0.000402499 -3.81215e-19
0.0203132 0.000402905 3.37629e-19
0.0216783 0.000402691 7.37206e-19
0.0230433 0.00039953 3.70085e-19
0.0244077 0.000382924 -1.4427e-19
0.0257573 0.00034277 -3.36277e-19
0.027 0.000314886 3.2882e-19
0 0 0
0.00119369 0.00011104 7.80001e-20
0.00252381 0.000177967 -1.77438e-20
0.00390804 0.000200972 2.42253e-21
0.00529233 0.000204164 -5.80434e-21
0.0066675 0.000203317 -2.60047e-19
0.0080363 0.00020216 -3.74989e-19
0.0094019 0.000201459 -4.74214e-19
0.0107662 0.000201129 -2.52873e-19
0.01213 0.000201 -3.02327e-19
0.0134937 0.000200964 1.43237e-19
0.0148573 0.000200972 -1.13881e-19
0.0162211 0.000201022 -6.07876e-19
0.017585 0.000201139 6.01467e-19
0.0189495 0.000201355 -3.3055e-19
0.020315 0.000201616 6.17664e-20
0.0216823 0.000201493 7.34367e-19
0.023051 0.000198805 3.0816e-19
0.0244144 0.000188964 -1.18111e-19
0.0257587 0.000172187 -2.90901e-19
0.027 0.000161459 -7.61827e-21
0 0 0
0.00118891 -1.29825e-20 1.47062e-19
0.00251377 -1.94072e-20 1.35049e-20
0.00389786 2.25865e-19 -4.51662e-20
0.00528728 3.0733e-19 -3.71889e-20
0.00666538 3.09016e-19 -3.37667e-19
0.00803556 4.68722e-19 -4.97479e-19
0.0094017 4.63045e-19 -3.46588e-19
0.0107661 5.89802e-19 -4.46385e-19
0.01213 4.3467e-19 -3.02773e-19
0.0134937 1.11504e-18 1.41876e-19
0.0148573 9.52045e-19 -2.83046e-19
0.0162211 8.83736e-19 -4.98908e-19
0.0175851 1.0538e-18 3.41447e-19
0.0189498 1.66478e-18 -4.29162e-19
0.0203157 1.27982e-18 -1.68812e-20
0.021684 1.53577e-18 9.65526e-19
0.0230533 2.22396e-18 3.87085e-19
0.0244156 2.15007e-18 -7.02513e-21
0.0257585 2.41247e-18 -2.3126e-19
0.027 1.9471e-18 3.30882e-20
0 0 0
0.00119369 -0.00011104 -4.75606e-20
0.00252381 -0.000177967 1.11467e-20
0.00390804 -0.000200972 -1.61604e-19
0.00529233 -0.000204164 -2.27257e-19
0.0066675 -0.000203317 -2.5804e-19
0.0080363 -0.00020216 -4.48736e-19
0.0094019 -0.000201459 -4.38751e-19
0.0107662 -0.000201129 -4.93117e-19
0.01213 -0.000201 -2.68207e-19
0.0134937 -0.000200964 -4.11251e-19
0.0148573 -0.000200972 -2.92556e-19
0.0162211 -0.000201022 -5.79191e-19
0.017585 -0.000201139 4.88409e-19
0.0189495 -0.000201355 -3.84278e-19
0.020315 -0.000201616 1.89037e-19
0.0216823 -0.000201493 5.94474e-19
0.023051 -0.000198805 7.0509e-19
0.0244144 -0.000188964 -9.03435e-20
0.0257587 -0.000172187 -1.49109e-19
0.027 -0.000161459 -3.47003e-19
0 0 0
0.00121068 -0.000250043 -6.66334e-21
0.00256498 -0.000373404 -1.58326e-19
0.00393274 -0.000401937 -1.51951e-19
0.00530384 -0.000406834 -3.60307e-19
0.00667192 -0.0004054 -4.91442e-19
0.00803771 -0.000403686 -5.30424e-19
0.00940223 -0.000402646 -5.38011e-19
0.0107662 -0.00040216 -5.56534e-19
0.0121299 -0.000401972 -5.34757e-19
0.0134936 -0.000401919 -3.24348e-19
0.0148573 -0.000401931 -7.3103e-19
0.016221 -0.000402005 -9.94499e-19
0.0175848 -0.000402178 2.26737e-19
0.0189488 -0.000402499 -6.24205e-19
0.0203132 -0.000402905 -9.99032e-20
0.0216783 -0.000402691 6.62364e-19
0.0230433 -0.00039953 1.87723e-19
0.0244077 -0.000382924 4.12331e-19
0.0257573 -0.00034277 -4.39046e-19
0.027 -0.000314886 -3.67091e-19
0 0 0
0.00132907 -0.000472865 -3.94895e-20
0.00262032 -0.000570983 6.90826e-21
0.0039542 -0.000602464 -3.4585e-19
0.00531109 -0.000607023 -1.0434e-19
0.00667381 -0.000606044 -5.61514e-19
0.00803795 -0.000604504 -7.31225e-19
0.0094021 -0.000603552 -4.72545e-19
0.0107661 -0.000603098 -3.9214e-19
0.0121299 -0.00060292 -2.58476e-19
0.0134936 -0.000602868 -5.47482e-19
0.0148573 -0.00060288 -8.50354e-19
0.0162211 -0.000602949 -1.01923e-18
0.0175848 -0.000603109 -5.28168e-19
0.0189486 -0.000603402 -3.14552e-19
0.0203123 -0.000603733 3.4497e-19
0.0216752 -0.000603516 4.62218e-19
0.0230349 -0.000599883 4.1928e-19
0.024386 -0.000586671 -1.67476e-20
0.0257337 -0.000514222 4.42149e-19
0.027 -0.000454568 -1.75591e-18
0 0 0
0.0013336 0.000468409 -0.000109937
0.00263044 0.000565845 -0.000176394
0.00396454 0.000599926 -0.000199897
0.0053164 0.000605841 -0.000203755
0.00667613 0.000605657 -0.000203218
0.00803878 0.0006044 -0.000202152
0.00940234 0.00060354 -0.00020147
0.0107661 0.000603106 -0.000201138
0.0121299 0.000602928 -0.000201005
0.0134936 0.000602874 -0.000200966
0.0148573 0.000602884 -0.000200974
0.016221 0.00060295 -0.000201024
0.0175847 0.000603098 -0.00020114