<?xml version="1.0"?>
<VTKFile type="UnstructuredGrid" version="0.1" byte_order="LittleEndian">
<UnstructuredGrid>
<Piece NumberOfPoints="1029" NumberOfCells="720">
<Points>
<DataArray type="Float32" NumberOfComponents="3" format="ascii">
0 0 0
0.005 0 0
0.01 0 0
0.015 0 0
0.02 0 0
0.025 0 0
0.03 0 0
0.035 0 0
0.04 0 0
0.045 0 0
0.05 0 0
0.055 0 0
0.06 0 0
0.065 0 0
0.07 0 0
0.075 0 0
0.08 0 0
0.085 0 0
0.09 0 0
0.095 0 0
0.1 0 0
0 0.005 0
0.005 0.005 0
0.01 0.005 0
0.015 0.005 0
0.02 0.005 0
0.025 0.005 0
0.03 0.005 0
0.035 0.005 0
0.04 0.005 0
0.045 0.005 0
0.05 0.005 0
0.055 0.005 0
0.06 0.005 0
0.065 0.005 0
0.07 0.005 0
0.075 0.005 0
0.08 0.005 0
0.085 0.005 0
0.09 0.005 0
0.095 0.005 0
0.1 0.005 0
0 0.01 0
0.005 0.01 0
0.01 0.01 0
0.015 0.01 0
0.02 0.01 0
0.025 0.01 0
0.03 0.01 0
0.035 0.01 0
0.04 0.01 0
0.045 0.01 0
0.05 0.01 0
0.055 0.01 0
0.06 0.01 0
0.065 0.01 0
0.07 0.01 0
0.075 0.01 0
0.08 0.01 0
0.085 0.01 0
0.09 0.01 0
0.095 0.01 0
0.1 0.01 0
0 0.015 0
0.005 0.015 0
0.01 0.015 0
0.015 0.015 0
0.02 0.015 0
0.025 0.015 0
0.03 0.015 0
0.035 0.015 0
0.04 0.015 0
0.045 0.015 0
0.05 0.015 0
0.055 0.015 0
0.06 0.015 0
0.065 0.015 0
0.07 0.015 0
0.075 0.015 0
0.08 0.015 0
0.085 0.015 0
0.09 0.015 0
0.095 0.015 0
0.1 0.015 0
0 0.02 0
0.005 0.02 0
0.01 0.02 0
0.015 0.02 0
0.02 0.02 0
0.025 0.02 0
0.03 0.02 0
0.035 0.02 0
0.04 0.02 0
0.045 0.02 0
0.05 0.02 0
0.055 0.02 0
0.06 0.02 0
0.065 0.02 0
0.07 0.02 0
0.075 0.02 0
0.08 0.02 0
0.085 0.02 0
0.09 0.02 0
0.095 0.02 0
0.1 0.02 0
0 0.025 0
0.005 0.025 0
0.01 0.025 0
0.015 0.025 0
0.02 0.025 0
0.025 0.025 0
0.03 0.025 0
0.035 0.025 0
0.04 0.025 0
0.045 0.025 0
0.05 0.025 0
0.055 0.025 0
0.06 0.025 0
0.065 0.025 0
0.07 0.025 0
0.075 0.025 0
0.08 0.025 0
0.085 0.025 0
0.09 0.025 0
0.095 0.025 0
0.1 0.025 0
0 0.03 0
0.005 0.03 0
0.01 0.03 0
0.015 0.03 0
0.02 0.03 0
0.025 0.03 0
0.03 0.03 0
0.035 0.03 0
0.04 0.03 0
0.045 0.03 0
0.05 0.03 0
0.055 0.03 0
0.06 0.03 0
0.065 0.03 0
0.07 0.03 0
0.075 0.03 0
0.08 0.03 0
0.085 0.03 0
0.09 0.03 0
0.095 0.03 0
0.1 0.03 0
0 0 0.005
0.005 0 0.005
0.01 0 0.005
0.015 0 0.005
0.02 0 0.005
0.025 0 0.005
0.03 0 0.005
0.035 0 0.005
0.04 0 0.005
0.045 0 0.005
0.05 0 0.005
0.055 0 0.005
0.06 0 0.005
0.065 0 0.005
0.07 0 0.005
0.075 0 0.005
0.08 0 0.005
0.085 0 0.005
0.09 0 0.005
0.095 0 0.005
0.1 0 0.005
0 0.005 0.005
0.005 0.005 0.005
0.01 0.005 0.005
0.015 0.005 0.005
0.02 0.005 0.005
0.025 0.005 0.005
0.03 0.005 0.005
0.035 0.005 0.005
0.04 0.005 0.005
0.045 0.005 0.005
0.05 0.005 0.005
0.055 0.005 0.005
0.06 0.005 0.005
0.065 0.005 0.005
0.07 0.005 0.005
0.075 0.005 0.005
0.08 0.005 0.005
0.085 0.005 0.005
0.09 0.005 0.005
0.095 0.005 0.005
0.1 0.005 0.005
0 0.01 0.005
0.005 0.01 0.005
0.01 0.01 0.005
0.015 0.01 0.005
0.02 0.01 0.005
0.025 0.01 0.005
0.03 0.01 0.005
0.035 0.01 0.005
0.04 0.01 0.005
0.045 0.01 0.005
0.05 0.01 0.005
0.055 0.01 0.005
0.06 0.01 0.005
0.065 0.01 0.005
0.07 0.01 0.005
0.075 0.01 0.005
0.08 0.01 0.005
0.085 0.01 0.005
0.09 0.01 0.005
0.095 0.01 0.005
0.1 0.01 0.005
0 0.015 0.005
0.005 0.015 0.005
0.01 0.015 0.005
0.015 0.015 0.005
0.02 0.015 0.005
0.025 0.015 0.005
0.03 0.015 0.005
0.035 0.015 0.005
0.04 0.015 0.005
0.045 0.015 0.005
0.05 0.015 0.005
0.055 0.015 0.005
0.06 0.015 0.005
0.065 0.015 0.005
0.07 0.015 0.005
0.075 0.015 0.005
0.08 0.015 0.005
0.085 0.015 0.005
0.09 0.015 0.005
0.095 0.015 0.005
0.1 0.015 0.005
0 0.02 0.005
0.005 0.02 0.005
0.01 0.02 0.005
0.015 0.02 0.005
0.02 0.02 0.005
0.025 0.02 0.005
0.03 0.02 0.005
0.035 0.02 0.005
0.04 0.02 0.005
0.045 0.02 0.005
0.05 0.02 0.005
0.055 0.02 0.005
0.06 0.02 0.005
0.065 0.02 0.005
0.07 0.02 0.005
0.075 0.02 0.005
0.08 0.02 0.005
0.085 0.02 0.005
0.09 0.02 0.005
0.095 0.02 0.005
0.1 0.02 0.005
0 0.025 0.005
0.005 0.025 0.005
0.01 0.025 0.005
0.015 0.025 0.005
0.02 0.025 0.005
0.025 0.025 0.005
0.03 0.025 0.005
0.035 0.025 0.005
0.04 0.025 0.005
0.045 0.025 0.005
0.05 0.025 0.005
0.055 0.025 0.005
0.06 0.025 0.005
0.065 0.025 0.005
0.07 0.025 0.005
0.075 0.025 0.005
0.08 0.025 0.005
0.085 0.025 0.005
0.09 0.025 0.005
0.095 0.025 0.005
0.1 0.025 0.005
0 0.03 0.005
0.005 0.03 0.005
0.01 0.03 0.005
0.015 0.03 0.005
0.02 0.03 0.005
0.025 0.03 0.005
0.03 0.03 0.005
0.035 0.03 0.005
0.04 0.03 0.005
0.045 0.03 0.005
0.05 0.03 0.005
0.055 0.03 0.005
0.06 0.03 0.005
0.065 0.03 0.005
0.07 0.03 0.005
0.075 0.03 0.005
0.08 0.03 0.005
0.085 0.03 0.005
0.09 0.03 0.005
0.095 0.03 0.005
0.1 0.03 0.005
0 0 0.01
0.005 0 0.01
0.01 0 0.01
0.015 0 0.01
0.02 0 0.01
0.025 0 0.01
0.03 0 0.01
0.035 0 0.01
0.04 0 0.01
0.045 0 0.01
0.05 0 0.01
0.055 0 0.01
0.06 0 0.01
0.065 0 0.01
0.07 0 0.01
0.075 0 0.01
0.08 0 0.01
0.085 0 0.01
0.09 0 0.01
0.095 0 0.01
0.1 0 0.01
0 0.005 0.01
0.005 0.005 0.01
0.01 0.005 0.01
0.015 0.005 0.01
0.02 0.005 0.01
0.025 0.005 0.01
0.03 0.005 0.01
0.035 0.005 0.01
0.04 0.005 0.01
0.045 0.005 0.01
0.05 0.005 0.01
0.055 0.005 0.01
0.06 0.005 0.01
0.065 0.005 0.01
0.07 0.005 0.01
0.075 0.005 0.01
0.08 0.005 0.01
0.085 0.005 0.01
0.09 0.005 0.01
0.095 0.005 0.01
0.1 0.005 0.01
0 0.01 0.01
0.005 0.01 0.01
0.01 0.01 0.01
0.015 0.01 0.01
0.02 0.01 0.01
0.025 0.01 0.01
0.03 0.01 0.01
0.035 0.01 0.01
0.04 0.01 0.01
0.045 0.01 0.01
0.05 0.01 0.01
0.055 0.01 0.01
0.06 0.01 0.01
0.065 0.01 0.01
0.07 0.01 0.01
0.075 0.01 0.01
0.08 0.01 0.01
0.085 0.01 0.01
0.09 0.01 0.01
0.095 0.01 0.01
0.1 0.01 0.01
0 0.015 0.01
0.005 0.015 0.01
0.01 0.015 0.01
0.015 0.015 0.01
0.02 0.015 0.01
0.025 0.015 0.01
0.03 0.015 0.01
0.035 0.015 0.01
0.04 0.015 0.01
0.045 0.015 0.01
0.05 0.015 0.01
0.055 0.015 0.01
0.06 0.015 0.01
0.065 0.015 0.01
0.07 0.015 0.01
0.075 0.015 0.01
0.08 0.015 0.01
0.085 0.015 0.01
0.09 0.015 0.01
0.095 0.015 0.01
0.1 0.015 0.01
0 0.02 0.01
0.005 0.02 0.01
0.01 0.02 0.01
0.015 0.02 0.01
0.02 0.02 0.01
0.025 0.02 0.01
0.03 0.02 0.01
0.035 0.02 0.01
0.04 0.02 0.01
0.045 0.02 0.01
0.05 0.02 0.01
0.055 0.02 0.01
0.06 0.02 0.01
0.065 0.02 0.01
0.07 0.02 0.01
0.075 0.02 0.01
0.08 0.02 0.01
0.085 0.02 0.01
0.09 0.02 0.01
0.095 0.02 0.01
0.1 0.02 0.01
0 0.025 0.01
0.005 0.025 0.01
0.01 0.025 0.01
0.015 0.025 0.01
0.02 0.025 0.01
0.025 0.025 0.01
0.03 0.025 0.01
0.035 0.025 0.01
0.04 0.025 0.01
0.045 0.025 0.01
0.05 0.025 0.01
0.055 0.025 0.01
0.06 0.025 0.01
0.065 0.025 0.01
0.07 0.025 0.01
0.075 0.025 0.01
0.08 0.025 0.01
0.085 0.025 0.01
0.09 0.025 0.01
0.095 0.025 0.01
0.1 0.025 0.01
0 0.03 0.01
0.005 0.03 0.01
0.01 0.03 0.01
0.015 0.03 0.01
0.02 0.03 0.01
0.025 0.03 0.01
0.03 0.03 0.01
0.035 0.03 0.01
0.04 0.03 0.01
0.045 0.03 0.01
0.05 0.03 0.01
0.055 0.03 0.01
0.06 0.03 0.01
0.065 0.03 0.01
0.07 0.03 0.01
0.075 0.03 0.01
0.08 0.03 0.01
0.085 0.03 0.01
0.09 0.03 0.01
0.095 0.03 0.01
0.1 0.03 0.01
0 0 0.015
0.005 0 0.015
0.01 0 0.015
0.015 0 0.015
0.02 0 0.015
0.025 0 0.015
0.03 0 0.015
0.035 0 0.015
0.04 0 0.015
0.045 0 0.015
0.05 0 0.015
0.055 0 0.015
0.06 0 0.015
0.065 0 0.015
0.07 0 0.015
0.075 0 0.015
0.08 0 0.015
0.085 0 0.015
0.09 0 0.015
0.095 0 0.015
0.1 0 0.015
0 0.005 0.015
0.005 0.005 0.015
0.01 0.005 0.015
0.015 0.005 0.015
0.02 0.005 0.015
0.025 0.005 0.015
0.03 0.005 0.015
0.035 0.005 0.015
0.04 0.005 0.015
0.045 0.005 0.015
0.05 0.005 0.015
0.055 0.005 0.015
0.06 0.005 0.015
0.065 0.005 0.015
0.07 0.005 0.015
0.075 0.005 0.015
0.08 0.005 0.015
0.085 0.005 0.015
0.09 0.005 0.015
0.095 0.005 0.015
0.1 0.005 0.015
0 0.01 0.015
0.005 0.01 0.015
0.01 0.01 0.015
0.015 0.01 0.015
0.02 0.01 0.015
0.025 0.01 0.015
0.03 0.01 0.015
0.035 0.01 0.015
0.04 0.01 0.015
0.045 0.01 0.015
0.05 0.01 0.015
0.055 0.01 0.015
0.06 0.01 0.015
0.065 0.01 0.015
0.07 0.01 0.015
0.075 0.01 0.015
0.08 0.01 0.015
0.085 0.01 0.015
0.09 0.01 0.015
0.095 0.01 0.015
0.1 0.01 0.015
0 0.015 0.015
0.005 0.015 0.015
0.01 0.015 0.015
0.015 0.015 0.015
0.02 0.015 0.015
0.025 0.015 0.015
0.03 0.015 0.015
0.035 0.015 0.015
0.04 0.015 0.015
0.045 0.015 0.015
0.05 0.015 0.015
0.055 0.015 0.015
0.06 0.015 0.015
0.065 0.015 0.015
0.07 0.015 0.015
0.075 0.015 0.015
0.08 0.015 0.015
0.085 0.015 0.015
0.09 0.015 0.015
0.095 0.015 0.015
0.1 0.015 0.015
0 0.02 0.015
0.005 0.02 0.015
0.01 0.02 0.015
0.015 0.02 0.015
0.02 0.02 0.015
0.025 0.02 0.015
0.03 0.02 0.015
0.035 0.02 0.015
0.04 0.02 0.015
0.045 0.02 0.015
0.05 0.02 0.015
0.055 0.02 0.015
0.06 0.02 0.015
0.065 0.02 0.015
0.07 0.02 0.015
0.075 0.02 0.015
0.08 0.02 0.015
0.085 0.02 0.015
0.09 0.02 0.015
0.095 0.02 0.015
0.1 0.02 0.015
0 0.025 0.015
0.005 0.025 0.015
0.01 0.025 0.015
0.015 0.025 0.015
0.02 0.025 0.015
0.025 0.025 0.015
0.03 0.025 0.015
0.035 0.025 0.015
0.04 0.025 0.015
0.045 0.025 0.015
0.05 0.025 0.015
0.055 0.025 0.015
0.06 0.025 0.015
0.065 0.025 0.015
0.07 0.025 0.015
0.075 0.025 0.015
0.08 0.025 0.015
0.085 0.025 0.015
0.09 0.025 0.015
0.095 0.025 0.015
0.1 0.025 0.015
0 0.03 0.015
0.005 0.03 0.015
0.01 0.03 0.015
0.015 0.03 0.015
0.02 0.03 0.015
0.025 0.03 0.015
0.03 0.03 0.015
0.035 0.03 0.015
0.04 0.03 0.015
0.045 0.03 0.015
0.05 0.03 0.015
0.055 0.03 0.015
0.06 0.03 0.015
0.065 0.03 0.015
0.07 0.03 0.015
0.075 0.03 0.015
0.08 0.03 0.015
0.085 0.03 0.015
0.09 0.03 0.015
0.095 0.03 0.015
0.1 0.03 0.015
0 0 0.02
0.005 0 0.02
0.01 0 0.02
0.015 0 0.02
0.02 0 0.02
0.025 0 0.02
0.03 0 0.02
0.035 0 0.02
0.04 0 0.02
0.045 0 0.02
0.05 0 0.02
0.055 0 0.02
0.06 0 0.02
0.065 0 0.02
0.07 0 0.02
0.075 0 0.02
0.08 0 0.02
0.085 0 0.02
0.09 0 0.02
0.095 0 0.02
0.1 0 0.02
0 0.005 0.02
0.005 0.005 0.02
0.01 0.005 0.02
0.015 0.005 0.02
0.02 0.005 0.02
0.025 0.005 0.02
0.03 0.005 0.02
0.035 0.005 0.02
0.04 0.005 0.02
0.045 0.005 0.02
0.05 0.005 0.02
0.055 0.005 0.02
0.06 0.005 0.02
0.065 0.005 0.02
0.07 0.005 0.02
0.075 0.005 0.02
0.08 0.005 0.02
0.085 0.005 0.02
0.09 0.005 0.02
0.095 0.005 0.02
0.1 0.005 0.02
0 0.01 0.02
0.005 0.01 0.02
0.01 0.01 0.02
0.015 0.01 0.02
0.02 0.01 0.02
0.025 0.01 0.02
0.03 0.01 0.02
0.035 0.01 0.02
0.04 0.01 0.02
0.045 0.01 0.02
0.05 0.01 0.02
0.055 0.01 0.02
0.06 0.01 0.02
0.065 0.01 0.02
0.07 0.01 0.02
0.075 0.01 0.02
0.08 0.01 0.02
0.085 0.01 0.02
0.09 0.01 0.02
0.095 0.01 0.02
[...]
<PointData Vectors="Displacement">
<DataArray type="Float32" Name="Displacement" NumberOfComponents="3" format="ascii">
0 0 0
0.00141381 0.000430976 0.000430976
0.00263177 0.000525955 0.000525955
0.00387037 0.000568862 0.000568862
0.00514446 0.000579535 0.000579535
0.00644036 0.000581548 0.000581548
0.00774723 0.000581073 0.000581073
0.0090586 0.000580432 0.000580432
0.0103715 0.000580029 0.000580029
0.0116849 0.00057984 0.00057984
0.0129983 0.000579775 0.000579775
0.0143117 0.000579781 0.000579781
0.015625 0.000579847 0.000579847
0.0169381 0.000579976 0.000579976
0.0182505 0.000580131 0.000580131
0.0195611 0.000580019 0.000580019
0.020868 0.000578731 0.000578731
0.0221682 0.000572936 0.000572936
0.0234597 0.000558203 0.000558203
0.024762 0.000495908 0.000495908
0.026 0.000448023 0.000448023
0 0 0
0.00130452 0.000231303 0.000434454
0.00257607 0.000349574 0.000533476
0.00384606 0.000381539 0.000571046
0.00513543 0.000389401 0.000580492
0.00643761 0.000389347 0.000581791
0.00774667 0.000388145 0.000581116
0.00905864 0.000387243 0.00058042
0.0103717 0.000386776 0.000580014
0.011685 0.000386579 0.00057983
0.0129983 0.000386519 0.000579769
0.0143117 0.00038653 0.000579777
0.015625 0.000386605 0.000579842
0.0169381 0.00038677 0.000579978
0.0182508 0.000387035 0.000580161
0.0195624 0.000387241 0.000580151
0.0208717 0.000386497 0.00057909
0.0221772 0.000382374 0.000574039
0.02348 0.000365837 0.000560279
0.0247834 0.000329477 0.000493886
0.026 0.000305714 0.000441097
0 0 0
0.00128747 0.000105157 0.000448621
0.0025368 0.000169208 0.000543482
0.00382155 0.000192141 0.000576777
0.00512334 0.00019599 0.000582676
0.00643275 0.000195491 0.000582525
0.00774503 0.000194446 0.000581288
0.00905822 0.000193768 0.00058043
0.0103716 0.000193435 0.000579993
0.011685 0.000193301 0.000579812
0.0129984 0.000193261 0.000579757
0.0143117 0.00019327 0.000579768
0.0156251 0.000193324 0.000579839
0.0169384 0.000193445 0.000579996
0.0182516 0.000193657 0.000580261
0.0195643 0.000193874 0.00058048
0.0208759 0.000193603 0.000579999
0.0221847 0.000190704 0.000575848
0.0234863 0.000180927 0.000562513
0.0247851 0.00016485 0.000490856
0.026 0.000155103 0.000432109
0 0 0
0.0012831 6.13424e-20 0.000452791
0.00252708 -3.09832e-20 0.000548357
0.00381153 2.42332e-19 0.000579219
0.00511814 1.52703e-19 0.000583824
0.00643046 4.88603e-20 0.000582905
0.0077442 4.09798e-19 0.000581392
0.00905797 2.82422e-19 0.000580443
0.0103716 3.87326e-19 0.000579985
0.011685 -1.59813e-19 0.000579804
0.0129984 6.17004e-19 0.000579751
0.0143117 3.70877e-20 0.000579764
0.0156251 -6.17755e-19 0.000579838
0.0169385 -4.0554e-19 0.000580008
0.0182519 -4.95551e-19 0.000580314
0.0195652 -5.19682e-19 0.000580655
0.0208777 -8.61963e-19 0.000580412
0.0221869 -9.88121e-19 0.000576644
0.0234874 -1.12456e-18 0.00056302
0.0247848 -1.78721e-18 0.000489521
0.026 -1.75673e-18 0.000429166
0 0 0
0.00128747 -0.000105157 0.000448621
0.0025368 -0.000169208 0.000543482
0.00382155 -0.000192141 0.000576777
0.00512334 -0.00019599 0.000582676
0.00643275 -0.000195491 0.000582525
0.00774503 -0.000194446 0.000581288
0.00905822 -0.000193768 0.00058043
0.0103716 -0.000193435 0.000579993
0.011685 -0.000193301 0.000579812
0.0129984 -0.000193261 0.000579757
0.0143117 -0.00019327 0.000579768
0.0156251 -0.000193324 0.000579839
0.0169384 -0.000193445 0.000579996
0.0182516 -0.000193657 0.000580261
0.0195643 -0.000193874 0.00058048
0.0208759 -0.000193603 0.000579999
0.0221847 -0.000190704 0.000575848
0.0234863 -0.000180927 0.000562513
0.0247851 -0.00016485 0.000490856
0.026 -0.000155103 0.000432109
0 0 0
0.00130452 -0.000231303 0.000434454
0.00257607 -0.000349574 0.000533476
0.00384606 -0.000381539 0.000571046
0.00513543 -0.000389401 0.000580492
0.00643761 -0.000389347 0.000581791
0.00774667 -0.000388145 0.000581116
0.00905864 -0.000387243 0.00058042
0.0103717 -0.000386776 0.000580014
0.011685 -0.000386579 0.00057983
0.0129983 -0.000386519 0.000579769
0.0143117 -0.00038653 0.000579777
0.015625 -0.000386605 0.000579842
0.0169381 -0.00038677 0.000579978
0.0182508 -0.000387035 0.000580161
0.0195624 -0.000387241 0.000580151
0.0208717 -0.000386497 0.00057909
0.0221772 -0.000382374 0.000574039
0.02348 -0.000365837 0.000560279
0.0247834 -0.000329477 0.000493886
0.026 -0.000305714 0.000441097
0 0 0
0.00141381 -0.000430976 0.000430976
0.00263177 -0.000525955 0.000525955
0.00387037 -0.000568862 0.000568862
0.00514446 -0.000579535 0.000579535
0.00644036 -0.000581548 0.000581548
0.00774723 -0.000581073 0.000581073
0.0090586 -0.000580432 0.000580432
0.0103715 -0.000580029 0.000580029
0.0116849 -0.00057984 0.00057984
0.0129983 -0.000579775 0.000579775
0.0143117 -0.000579781 0.000579781
0.015625 -0.000579847 0.000579847
0.0169381 -0.000579976 0.000579976
0.0182505 -0.000580131 0.000580131
0.0195611 -0.000580019 0.000580019
0.020868 -0.000578731 0.000578731
0.0221682 -0.000572936 0.000572936
0.0234597 -0.000558203 0.000558203
0.024762 -0.000495908 0.000495908
0.026 -0.000448023 0.000448023
0 0 0
0.00130452 0.000434454 0.000231303
0.00257607 0.000533476 0.000349574
0.00384606 0.000571046 0.000381539
0.00513543 0.000580492 0.000389401
0.00643761 0.000581791 0.000389347
0.00774667 0.000581116 0.000388145
0.00905864 0.00058042 0.000387243
0.0103717 0.000580014 0.000386776
0.011685 0.00057983 0.000386579
0.0129983 0.000579769 0.000386519
0.0143117 0.000579777 0.00038653
0.015625 0.000579842 0.000386605
0.0169381 0.000579978 0.00038677
0.0182508 0.000580161 0.000387035
0.0195624 0.000580151 0.000387241
0.0208717 0.00057909 0.000386497
0.0221772 0.000574039 0.000382374
0.02348 0.000560279 0.000365837
0.0247834 0.000493886 0.000329477
0.026 0.000441097 0.000305714
0 0 0
0.00119101 0.000230083 0.000230083
0.00252128 0.00034902 0.00034902
0.00382344 0.0003812 0.0003812
0.00512711 0.000389157 0.000389157
0.00643519 0.000389253 0.000389253
0.00774622 0.000388107 0.000388107
0.0090587 0.000387232 0.000387232
0.0103718 0.000386774 0.000386774
0.011685 0.00038658 0.00038658
0.0129984 0.000386519 0.000386519
0.0143117 0.00038653 0.00038653
0.015625 0.000386604 0.000386604
0.0169382 0.000386765 0.000386765
0.0182511 0.00038702 0.00038702
0.0195636 0.000387205 0.000387205
0.0208752 0.000386436 0.000386436
0.0221859 0.000382358 0.000382358
0.0235013 0.000365836 0.000365836
0.0248063 0.000329268 0.000329268
0.026 0.00030497 0.00030497
0 0 0
0.00117339 0.000102517 0.000236222
0.00248257 0.00016689 0.000355356
0.00379996 0.000190829 0.000384592
0.00511585 0.000195392 0.000390536
0.0064307 0.000195263 0.000389689
0.00774473 0.000194378 0.000388208
0.00905833 0.000193754 0.000387234
0.0103717 0.000193436 0.000386759
0.0116851 0.000193304 0.000386568
0.0129984 0.000193264 0.000386512
0.0143117 0.000193272 0.000386524
0.015625 0.000193323 0.000386601
0.0169384 0.000193436 0.000386775
0.0182518 0.000193624 0.00038708
0.0195654 0.000193781 0.000387414
0.0208792 0.000193396 0.000386995
0.0221934 0.000190348 0.000383487
0.0235083 0.000180655 0.000366747
0.0248089 0.000165257 0.000327236
0.026 0.000155916 0.000300076
0 0 0
0.00116844 -1.1231e-20 0.000239071
0.0024731 -5.04892e-20 0.000358343
0.00379046 5.74305e-20 0.000386385
0.00511098 2.46023e-19 0.000391309
0.00642859 8.10618e-20 0.000389957
0.00774397 3.04361e-19 0.000388276
0.0090581 1.31529e-19 0.000387241
0.0103717 1.61813e-19 0.000386753
0.0116851 -2.73643e-19 0.000386562
0.0129984 3.12781e-19 0.000386508
0.0143117 1.03792e-19 0.000386522
0.0156251 -3.63474e-19 0.0003866
0.0169385 -3.38521e-19 0.000386783
0.0182521 -1.16999e-19 0.000387117
0.0195662 -7.02561e-19 0.000387535
0.0208809 -9.31606e-19 0.000387296
0.0221956 -1.04892e-18 0.000384
0.0235097 -1.58714e-18 0.000367
0.024809 -1.88538e-18 0.000326303
0.026 -2.0941e-18 0.000298143
0 0 0
0.00117339 -0.000102517 0.000236222
0.00248257 -0.00016689 0.000355356
0.00379996 -0.000190829 0.000384592
0.00511585 -0.000195392 0.000390536
0.0064307 -0.000195263 0.000389689
0.00774473 -0.000194378 0.000388208
0.00905833 -0.000193754 0.000387234
0.0103717 -0.000193436 0.000386759
0.0116851 -0.000193304 0.000386568
0.0129984 -0.000193264 0.000386512
0.0143117 -0.000193272 0.000386524
0.015625 -0.000193323 0.000386601
0.0169384 -0.000193436 0.000386775
0.0182518 -0.000193624 0.00038708
0.0195654 -0.000193781 0.000387414
0.0208792 -0.000193396 0.000386995
0.0221934 -0.000190348 0.000383487
0.0235083 -0.000180655 0.000366747
0.0248089 -0.000165257 0.000327236
0.026 -0.000155916 0.000300076
0 0 0
0.00119101 -0.000230083 0.000230083
0.00252128 -0.00034902 0.00034902
0.00382344 -0.0003812 0.0003812
0.00512711 -0.000389157 0.000389157
0.00643519 -0.000389253 0.000389253
0.00774622 -0.000388107 0.000388107
0.0090587 -0.000387232 0.000387232
0.0103718 -0.000386774 0.000386774
0.011685 -0.00038658 0.00038658
0.0129984 -0.000386519 0.000386519
0.0143117 -0.00038653 0.00038653
0.015625 -0.000386604 0.000386604
0.0169382 -0.000386765 0.000386765
0.0182511 -0.00038702 0.00038702
0.0195636 -0.000387205 0.000387205
0.0208752 -0.000386436 0.000386436
0.0221859 -0.000382358 0.000382358
0.0235013 -0.000365836 0.000365836
0.0248063 -0.000329268 0.000329268
0.026 -0.00030497 0.00030497
0 0 0
0.00130452 -0.000434454 0.000231303
0.00257607 -0.000533476 0.000349574
0.00384606 -0.000571046 0.000381539
0.00513543 -0.000580492 0.000389401
0.00643761 -0.000581791 0.000389347
0.00774667 -0.000581116 0.000388145
0.00905864 -0.00058042 0.000387243
0.0103717 -0.000580014 0.000386776
0.011685 -0.00057983 0.000386579
0.0129983 -0.000579769 0.000386519
0.0143117 -0.000579777 0.00038653
0.015625 -0.000579842 0.000386605
0.0169381 -0.000579978 0.00038677
0.0182508 -0.000580161 0.000387035
0.0195624 -0.000580151 0.000387241
0.0208717 -0.00057909 0.000386497
0.0221772 -0.000574039 0.000382374
0.02348 -0.000560279 0.000365837
0.0247834 -0.000493886 0.000329477
0.026 -0.000441097 0.000305714
0 0 0
0.00128747 0.000448621 0.000105157
0.0025368 0.000543482 0.000169208
0.00382155 0.000576777 0.000192141
0.00512334 0.000582676 0.00019599
0.00643275 0.000582525 0.000195491
0.00774503 0.000581288 0.000194446
0.00905822 0.00058043 0.000193768
0.0103716 0.000579993 0.000193435
0.011685 0.000579812 0.000193301
0.0129984 0.000579757 0.000193261
0.0143117 0.000579768 0.00019327
0.0156251 0.000579839 0.000193324
0.0169384 0.000579996 0.000193445
0.0182516 0.000580261 0.000193657
0.0195643 0.00058048 0.000193874
0.0208759 0.000579999 0.000193603
0.0221847 0.000575848 0.000190704
0.0234863 0.000562513 0.000180927
0.0247851 0.000490856 0.00016485
0.026 0.000432109 0.000155103
0 0 0
0.00117339 0.000236222 0.000102517
0.00248257 0.000355356 0.00016689
0.00379996 0.000384592 0.000190829
0.00511585 0.000390536 0.000195392
0.0064307 0.000389689 0.000195263
0.00774473 0.000388208 0.000194378
0.00905833 0.000387234 0.000193754
0.0103717 0.000386759 0.000193436
0.0116851 0.000386568 0.000193304
0.0129984 0.000386512 0.000193264
0.0143117 0.000386524 0.000193272
0.015625 0.000386601 0.000193323
0.0169384 0.000386775 0.000193436
0.0182518 0.00038708 0.000193624
0.0195654 0.000387414 0.000193781
0.0208792 0.000386995 0.000193396
0.0221934 0.000383487 0.000190348
0.0235083 0.000366747 0.000180655
0.0248089 0.000327236 0.000165257
0.026 0.000300076 0.000155916
0 0 0
0.00115673 0.000104959 0.000104959
0.00244296 0.000169314 0.000169314
0.00377616 0.000192313 0.000192313
0.00510458 0.000196004 0.000196004
0.00642632 0.000195458 0.000195458
0.0077433 0.000194421 0.000194421
0.00905798 0.000193755 0.000193755
0.0103717 0.000193429 0.000193429
0.0116851 0.000193299 0.000193299
0.0129984 0.00019326 0.00019326
0.0143117 0.000193269 0.000193269
0.0156251 0.000193321 0.000193321
0.0169386 0.00019344 0.00019344
0.0182525 0.000193651 0.000193651
0.0195672 0.000193877 0.000193877
0.0208833 0.000193651 0.000193651
0.0222012 0.000190783 0.000190783
0.0235152 0.000180881 0.000180881
0.0248106 0.000164414 0.000164414
0.026 0.000154032 0.000154032
0 0 0
0.00115207 -4.06004e-20 0.000106142
0.00243337 -7.94844e-21 0.000170662
0.00376641 3.35822e-20 0.000193151
0.00509969 9.89664e-20 0.00019638
0.00642422 -7.98578e-20 0.000195587
0.00774256 2.16478e-19 0.000194454
0.00905777 4.21102e-20 0.000193758
0.0103717 2.12275e-20 0.000193426
0.0116851 -2.67092e-19 0.000193296
0.0129984 4.60784e-20 0.000193258
0.0143117 -4.79241e-20 0.000193268
0.0156251 -5.67843e-19 0.000193321
0.0169387 -1.23934e-19 0.000193444
0.0182528 -2.38499e-19 0.00019367
0.019568 -6.8354e-19 0.000193936
0.020885 -1.14181e-18 0.000193795
0.0222035 -1.06146e-18 0.000191007
0.0235165 -1.92981e-18 0.000180959
0.0248105 -2.16071e-18 0.000163977
0.026 -2.48002e-18 0.000153154
0 0 0
0.00115673 -0.000104959 0.000104959
0.00244296 -0.000169314 0.000169314
0.00377616 -0.000192313 0.000192313
0.00510458 -0.000196004 0.000196004
0.00642632 -0.000195458 0.000195458
0.0077433 -0.000194421 0.000194421
0.00905798 -0.000193755 0.000193755
0.0103717 -0.000193429 0.000193429
0.0116851 -0.000193299 0.000193299
0.0129984 -0.00019326 0.00019326
0.0143117 -0.000193269 0.000193269
0.0156251 -0.000193321 0.000193321
0.0169386 -0.00019344 0.00019344
0.0182525 -0.000193651 0.000193651
0.0195672 -0.000193877 0.000193877
0.0208833 -0.000193651 0.000193651
0.0222012 -0.000190783 0.000190783
0.0235152 -0.000180881 0.000180881
0.0248106 -0.000164414 0.000164414
0.026 -0.000154032 0.000154032
0 0 0
0.00117339 -0.000236222 0.000102517
0.00248257 -0.000355356 0.00016689
0.00379996 -0.000384592 0.000190829
0.00511585 -0.000390536 0.000195392
0.0064307 -0.000389689 0.000195263
0.00774473 -0.000388208 0.000194378
0.00905833 -0.000387234 0.000193754
0.0103717 -0.000386759 0.000193436
0.0116851 -0.000386568 0.000193304
0.0129984 -0.000386512 0.000193264
0.0143117 -0.000386524 0.000193272
0.015625 -0.000386601 0.000193323
0.0169384 -0.000386775 0.000193436
0.0182518 -0.00038708 0.000193624
0.0195654 -0.000387414 0.000193781
0.0208792 -0.000386995 0.000193396
0.0221934 -0.000383487 0.000190348
0.0235083 -0.000366747 0.000180655
0.0248089 -0.000327236 0.000165257
0.026 -0.000300076 0.000155916
0 0 0
0.00128747 -0.000448621 0.000105157
0.0025368 -0.000543482 0.000169208
0.00382155 -0.000576777 0.000192141
0.00512334 -0.000582676 0.00019599
0.00643275 -0.000582525 0.000195491
0.00774503 -0.000581288 0.000194446
0.00905822 -0.00058043 0.000193768
0.0103716 -0.000579993 0.000193435
0.011685 -0.000579812 0.000193301
0.0129984 -0.000579757 0.000193261
0.0143117 -0.000579768 0.00019327
0.0156251 -0.000579839 0.000193324
0.0169384 -0.000579996 0.000193445
0.0182516 -0.000580261 0.000193657
0.0195643 -0.00058048 0.000193874
0.0208759 -0.000579999 0.000193603
0.0221847 -0.000575848 0.000190704
0.0234863 -0.000562513 0.000180927
0.0247851 -0.000490856 0.00016485
0.026 -0.000432109 0.000155103
0 0 0
0.0012831 0.000452791 1.64279e-19
0.00252708 0.000548357 -1.07632e-20
0.00381153 0.000579219 2.12558e-19
0.00511814 0.000583824 2.37059e-19
0.00643046 0.000582905 3.10312e-19
0.0077442 0.000581392 1.79956e-19
0.00905797 0.000580443 2.69948e-19
0.0103716 0.000579985 1.12533e-19
0.011685 0.000579804 -2.73857e-19
0.0129984 0.000579751 4.17405e-19
0.0143117 0.000579764 5.84858e-19
0.0156251 0.000579838 6.49371e-19
0.0169385 0.000580008 1.49788e-18
0.0182519 0.000580314 -3.67686e-19
0.0195652 0.000580655 1.67969e-19
0.0208777 0.000580412 8.09607e-19
0.0221869 0.000576644 1.87212e-19
0.0234874 0.00056302 3.8443e-20
0.0247848 0.000489521 -7.36629e-19
0.026 0.000429166 -4.45908e-19
0 0 0
0.00116844 0.000239071 9.90629e-20
0.0024731 0.000358343 1.87662e-19
0.00379046 0.000386385 9.83594e-20
0.00511098 0.000391309 3.19897e-19
0.00642859 0.000389957 4.45643e-19
0.00774397 0.000388276 2.43546e-19
0.0090581 0.000387241 3.42352e-19
0.0103717 0.000386753 4.59892e-19
0.0116851 0.000386562 1.5731e-19
0.0129984 0.000386508 5.55271e-19
0.0143117 0.000386522 3.39235e-19
0.0156251 0.0003866 7.48828e-19
0.0169385 0.000386783 1.51333e-18
0.0182521 0.000387117 -9.64163e-20
0.0195662 0.000387535 2.48815e-19
0.0208809 0.000387296 1.12725e-18
0.0221956 0.000384 5.55218e-19
0.0235097 0.000367 1.95489e-20
0.024809 0.000326303 -3.86243e-20
0.026 0.000298143 -4.42065e-19
0 0 0
0.00115207 0.000106142 8.42267e-20
0.00243337 0.000170662 9.65067e-20
0.00376641 0.000193151 3.60535e-19
0.00509969 0.00019638 5.53064e-19
0.00642422 0.000195587 4.09137e-19
0.00774256 0.000194454 3.95522e-19
0.00905777 0.000193758 5.75882e-19
0.0103717 0.000193426 4.35517e-19
0.0116851 0.000193296 6.27118e-19
0.0129984 0.000193258 6.66893e-19
0.0143117 0.000193268 4.91284e-19
0.0156251 0.000193321 2.07526e-19
0.0169387 0.000193444 1.39399e-18
0.0182528 0.00019367 4.64135e-20
0.019568 0.000193936 6.1102e-19
0.020885 0.000193795 1.09473e-18
0.0222035 0.000191007 7.73326e-19
0.0235165 0.000180959 3.67525e-19
0.0248105 0.000163977 -1.62307e-19
0.026 0.000153154 -2.31766e-19
0 0 0
0.00114747 -6.55678e-20 1.05419e-19
0.00242373 -1.4562e-19 1.68339e-19
0.00375656 3.64749e-20 3.42093e-19
0.00509474 1.13198e-19 5.41966e-19
0.00642212 -1.67506e-19 4.17567e-19
0.00774183 4.122e-20 3.95646e-19
0.00905757 -1.36378e-19 4.33326e-19
0.0103716 -2.39442e-19 5.75188e-19
0.0116851 -5.37296e-19 4.6061e-19
0.0129984 1.99029e-20 9.2514e-19
0.0143117 -1.33368e-19 5.63197e-19
0.0156251 -5.14933e-19 2.70316e-19
0.0169388 -2.59182e-19 1.29999e-18
0.0182531 -5.24238e-19 2.39904e-19
0.0195688 -9.22202e-19 3.86971e-19
0.0208868 -1.19777e-18 1.28706e-18
0.0222058 -1.5554e-18 9.48774e-19
0.0235178 -2.04128e-18 6.72526e-19
0.0248103 -2.40914e-18 3.91959e-20
0.026 -2.09802e-18 1.23474e-19
0 0 0
0.00115207 -0.000106142 5.05983e-20
0.00243337 -0.000170662 2.5036e-19
0.00376641 -0.000193151 2.95488e-19
0.00509969 -0.00019638 3.28078e-19
0.00642422 -0.000195587 5.63867e-19
0.00774256 -0.000194454 3.59579e-19
0.00905777 -0.000193758 4.84242e-19
0.0103717 -0.000193426 6.52284e-19
0.0116851 -0.000193296 3.65102e-19
0.0129984 -0.000193258 9.84543e-19
0.0143117 -0.000193268 6.56709e-19
0.0156251 -0.000193321 4.08977e-19
0.0169387 -0.000193444 1.26339e-18
0.0182528 -0.00019367 2.32376e-19
0.019568 -0.000193936 7.64028e-19
0.020885 -0.000193795 1.38651e-18
0.0222035 -0.000191007 8.81119e-19
0.0235165 -0.000180959 1.0349e-18
0.0248105 -0.000163977 1.02899e-19
0.026 -0.000153154 2.80522e-19
0 0 0
0.00116844 -0.000239071 1.0799e-19
0.0024731 -0.000358343 2.20963e-19
0.00379046 -0.000386385 2.12156e-19
0.00511098 -0.000391309 3.37885e-19
0.00642859 -0.000389957 2.4953e-19
0.00774397 -0.000388276 5.20477e-19
0.0090581 -0.000387241 5.52994e-19
0.0103717 -0.000386753 5.32438e-19
0.0116851 -0.000386562 7.51092e-19
0.0129984 -0.000386508 9.97114e-19
0.0143117 -0.000386522 7.18397e-19
0.0156251 -0.0003866 1.28072e-19
0.0169385 -0.000386783 9.08772e-19
0.0182521 -0.000387117 2.74864e-20
0.0195662 -0.000387535 6.68691e-19
0.0208809 -0.000387296 1.40329e-18
0.0221956 -0.000384 8.88146e-19
0.0235097 -0.000367 8.77397e-19
0.024809 -0.000326303 3.71871e-19
0.026 -0.000298143 2.9457e-19
0 0 0
0.0012831 -0.000452791 8.62e-20
0.00252708 -0.000548357 1.97228e-19
0.00381153 -0.000579219 3.8579e-19
0.00511814 -0.000583824 4.65988e-19
0.00643046 -0.000582905 3.50472e-19
0.0077442 -0.000581392 3.37548e-19
0.00905797 -0.000580443 7.60604e-19
0.0103716 -0.000579985 7.39047e-19
0.011685 -0.000579804 1.31678e-18
0.0129984 -0.000579751 9.30089e-19
0.0143117 -0.000579764 8.35376e-19
0.0156251 -0.000579838 1.33865e-19
0.0169385 -0.000580008 9.57913e-19
0.0182519 -0.000580314 7.18196e-19
0.0195652 -0.000580655 7.71924e-19
0.0208777 -0.000580412 1.41563e-18
0.0221869 -0.000576644 9.82931e-19
0.0234874 -0.00056302 1.03556e-18
0.0247848 -0.000489521 1.07117e-18
0.026 -0.000429166 1.66105e-20
0 0 0
0.00128747 0.000448621 -0.000105157
0.0025368 0.000543482 -0.000169208
0.00382155 0.000576777 -0.000192141
0.00512334 0.000582676 -0.00019599
0.00643275 0.000582525 -0.000195491
0.00774503 0.000581288 -0.000194446
0.00905822 0.00058043 -0.000193768
0.0103716 0.000579993 -0.000193435
0.011685 0.000579812 -0.000193301
0.0129984 0.000579757 -0.000193261
0.0143117 0.000579768 -0.00019327
0.0156251 0.000579839 -0.000193324
0.0169384 0.000579996 -0.000193445
0.0182516 0.000580261 -0.000193657